# vtk DataFile Version 3.0
# File generated by fem_2d on: 1644089292.972360894s

ASCII
DATASET UNSTRUCTURED_GRID

POINTS 512 double
0.0000000000 0.0000000000 0.0
0.0000000000 0.0714285714 0.0
0.0000000000 0.1428571429 0.0
0.0000000000 0.2142857143 0.0
0.0000000000 0.2857142857 0.0
0.0000000000 0.3571428571 0.0
0.0000000000 0.4285714286 0.0
0.0000000000 0.5000000000 0.0
0.0714285714 0.0000000000 0.0
0.0714285714 0.0714285714 0.0
0.0714285714 0.1428571429 0.0
0.0714285714 0.2142857143 0.0
0.0714285714 0.2857142857 0.0
0.0714285714 0.3571428571 0.0
0.0714285714 0.4285714286 0.0
0.0714285714 0.5000000000 0.0
0.1428571429 0.0000000000 0.0
0.1428571429 0.0714285714 0.0
0.1428571429 0.1428571429 0.0
0.1428571429 0.2142857143 0.0
0.1428571429 0.2857142857 0.0
0.1428571429 0.3571428571 0.0
0.1428571429 0.4285714286 0.0
0.1428571429 0.5000000000 0.0
0.2142857143 0.0000000000 0.0
0.2142857143 0.0714285714 0.0
0.2142857143 0.1428571429 0.0
0.2142857143 0.2142857143 0.0
0.2142857143 0.2857142857 0.0
0.2142857143 0.3571428571 0.0
0.2142857143 0.4285714286 0.0
0.2142857143 0.5000000000 0.0
0.2857142857 0.0000000000 0.0
0.2857142857 0.0714285714 0.0
0.2857142857 0.1428571429 0.0
0.2857142857 0.2142857143 0.0
0.2857142857 0.2857142857 0.0
0.2857142857 0.3571428571 0.0
0.2857142857 0.4285714286 0.0
0.2857142857 0.5000000000 0.0
0.3571428571 0.0000000000 0.0
0.3571428571 0.0714285714 0.0
0.3571428571 0.1428571429 0.0
0.3571428571 0.2142857143 0.0
0.3571428571 0.2857142857 0.0
0.3571428571 0.3571428571 0.0
0.3571428571 0.4285714286 0.0
0.3571428571 0.5000000000 0.0
0.4285714286 0.0000000000 0.0
0.4285714286 0.0714285714 0.0
0.4285714286 0.1428571429 0.0
0.4285714286 0.2142857143 0.0
0.4285714286 0.2857142857 0.0
0.4285714286 0.3571428571 0.0
0.4285714286 0.4285714286 0.0
0.4285714286 0.5000000000 0.0
0.5000000000 0.0000000000 0.0
0.5000000000 0.0714285714 0.0
0.5000000000 0.1428571429 0.0
0.5000000000 0.2142857143 0.0
0.5000000000 0.2857142857 0.0
0.5000000000 0.3571428571 0.0
0.5000000000 0.4285714286 0.0
0.5000000000 0.5000000000 0.0
0.5000000000 0.0000000000 0.0
0.5000000000 0.0714285714 0.0
0.5000000000 0.1428571429 0.0
0.5000000000 0.2142857143 0.0
0.5000000000 0.2857142857 0.0
0.5000000000 0.3571428571 0.0
0.5000000000 0.4285714286 0.0
0.5000000000 0.5000000000 0.0
0.5714285714 0.0000000000 0.0
0.5714285714 0.0714285714 0.0
0.5714285714 0.1428571429 0.0
0.5714285714 0.2142857143 0.0
0.5714285714 0.2857142857 0.0
0.5714285714 0.3571428571 0.0
0.5714285714 0.4285714286 0.0
0.5714285714 0.5000000000 0.0
0.6428571429 0.0000000000 0.0
0.6428571429 0.0714285714 0.0
0.6428571429 0.1428571429 0.0
0.6428571429 0.2142857143 0.0
0.6428571429 0.2857142857 0.0
0.6428571429 0.3571428571 0.0
0.6428571429 0.4285714286 0.0
0.6428571429 0.5000000000 0.0
0.7142857143 0.0000000000 0.0
0.7142857143 0.0714285714 0.0
0.7142857143 0.1428571429 0.0
0.7142857143 0.2142857143 0.0
0.7142857143 0.2857142857 0.0
0.7142857143 0.3571428571 0.0
0.7142857143 0.4285714286 0.0
0.7142857143 0.5000000000 0.0
0.7857142857 0.0000000000 0.0
0.7857142857 0.0714285714 0.0
0.7857142857 0.1428571429 0.0
0.7857142857 0.2142857143 0.0
0.7857142857 0.2857142857 0.0
0.7857142857 0.3571428571 0.0
0.7857142857 0.4285714286 0.0
0.7857142857 0.5000000000 0.0
0.8571428571 0.0000000000 0.0
0.8571428571 0.0714285714 0.0
0.8571428571 0.1428571429 0.0
0.8571428571 0.2142857143 0.0
0.8571428571 0.2857142857 0.0
0.8571428571 0.3571428571 0.0
0.8571428571 0.4285714286 0.0
0.8571428571 0.5000000000 0.0
0.9285714286 0.0000000000 0.0
0.9285714286 0.0714285714 0.0
0.9285714286 0.1428571429 0.0
0.9285714286 0.2142857143 0.0
0.9285714286 0.2857142857 0.0
0.9285714286 0.3571428571 0.0
0.9285714286 0.4285714286 0.0
0.9285714286 0.5000000000 0.0
1.0000000000 0.0000000000 0.0
1.0000000000 0.0714285714 0.0
1.0000000000 0.1428571429 0.0
1.0000000000 0.2142857143 0.0
1.0000000000 0.2857142857 0.0
1.0000000000 0.3571428571 0.0
1.0000000000 0.4285714286 0.0
1.0000000000 0.5000000000 0.0
1.0000000000 0.0000000000 0.0
1.0000000000 0.0714285714 0.0
1.0000000000 0.1428571429 0.0
1.0000000000 0.2142857143 0.0
1.0000000000 0.2857142857 0.0
1.0000000000 0.3571428571 0.0
1.0000000000 0.4285714286 0.0
1.0000000000 0.5000000000 0.0
1.0714285714 0.0000000000 0.0
1.0714285714 0.0714285714 0.0
1.0714285714 0.1428571429 0.0
1.0714285714 0.2142857143 0.0
1.0714285714 0.2857142857 0.0
1.0714285714 0.3571428571 0.0
1.0714285714 0.4285714286 0.0
1.0714285714 0.5000000000 0.0
1.1428571429 0.0000000000 0.0
1.1428571429 0.0714285714 0.0
1.1428571429 0.1428571429 0.0
1.1428571429 0.2142857143 0.0
1.1428571429 0.2857142857 0.0
1.1428571429 0.3571428571 0.0
1.1428571429 0.4285714286 0.0
1.1428571429 0.5000000000 0.0
1.2142857143 0.0000000000 0.0
1.2142857143 0.0714285714 0.0
1.2142857143 0.1428571429 0.0
1.2142857143 0.2142857143 0.0
1.2142857143 0.2857142857 0.0
1.2142857143 0.3571428571 0.0
1.2142857143 0.4285714286 0.0
1.2142857143 0.5000000000 0.0
1.2857142857 0.0000000000 0.0
1.2857142857 0.0714285714 0.0
1.2857142857 0.1428571429 0.0
1.2857142857 0.2142857143 0.0
1.2857142857 0.2857142857 0.0
1.2857142857 0.3571428571 0.0
1.2857142857 0.4285714286 0.0
1.2857142857 0.5000000000 0.0
1.3571428571 0.0000000000 0.0
1.3571428571 0.0714285714 0.0
1.3571428571 0.1428571429 0.0
1.3571428571 0.2142857143 0.0
1.3571428571 0.2857142857 0.0
1.3571428571 0.3571428571 0.0
1.3571428571 0.4285714286 0.0
1.3571428571 0.5000000000 0.0
1.4285714286 0.0000000000 0.0
1.4285714286 0.0714285714 0.0
1.4285714286 0.1428571429 0.0
1.4285714286 0.2142857143 0.0
1.4285714286 0.2857142857 0.0
1.4285714286 0.3571428571 0.0
1.4285714286 0.4285714286 0.0
1.4285714286 0.5000000000 0.0
1.5000000000 0.0000000000 0.0
1.5000000000 0.0714285714 0.0
1.5000000000 0.1428571429 0.0
1.5000000000 0.2142857143 0.0
1.5000000000 0.2857142857 0.0
1.5000000000 0.3571428571 0.0
1.5000000000 0.4285714286 0.0
1.5000000000 0.5000000000 0.0
1.5000000000 0.0000000000 0.0
1.5000000000 0.0714285714 0.0
1.5000000000 0.1428571429 0.0
1.5000000000 0.2142857143 0.0
1.5000000000 0.2857142857 0.0
1.5000000000 0.3571428571 0.0
1.5000000000 0.4285714286 0.0
1.5000000000 0.5000000000 0.0
1.5714285714 0.0000000000 0.0
1.5714285714 0.0714285714 0.0
1.5714285714 0.1428571429 0.0
1.5714285714 0.2142857143 0.0
1.5714285714 0.2857142857 0.0
1.5714285714 0.3571428571 0.0
1.5714285714 0.4285714286 0.0
1.5714285714 0.5000000000 0.0
1.6428571429 0.0000000000 0.0
1.6428571429 0.0714285714 0.0
1.6428571429 0.1428571429 0.0
1.6428571429 0.2142857143 0.0
1.6428571429 0.2857142857 0.0
1.6428571429 0.3571428571 0.0
1.6428571429 0.4285714286 0.0
1.6428571429 0.5000000000 0.0
1.7142857143 0.0000000000 0.0
1.7142857143 0.0714285714 0.0
1.7142857143 0.1428571429 0.0
1.7142857143 0.2142857143 0.0
1.7142857143 0.2857142857 0.0
1.7142857143 0.3571428571 0.0
1.7142857143 0.4285714286 0.0
1.7142857143 0.5000000000 0.0
1.7857142857 0.0000000000 0.0
1.7857142857 0.0714285714 0.0
1.7857142857 0.1428571429 0.0
1.7857142857 0.2142857143 0.0
1.7857142857 0.2857142857 0.0
1.7857142857 0.3571428571 0.0
1.7857142857 0.4285714286 0.0
1.7857142857 0.5000000000 0.0
1.8571428571 0.0000000000 0.0
1.8571428571 0.0714285714 0.0
1.8571428571 0.1428571429 0.0
1.8571428571 0.2142857143 0.0
1.8571428571 0.2857142857 0.0
1.8571428571 0.3571428571 0.0
1.8571428571 0.4285714286 0.0
1.8571428571 0.5000000000 0.0
1.9285714286 0.0000000000 0.0
1.9285714286 0.0714285714 0.0
1.9285714286 0.1428571429 0.0
1.9285714286 0.2142857143 0.0
1.9285714286 0.2857142857 0.0
1.9285714286 0.3571428571 0.0
1.9285714286 0.4285714286 0.0
1.9285714286 0.5000000000 0.0
2.0000000000 0.0000000000 0.0
2.0000000000 0.0714285714 0.0
2.0000000000 0.1428571429 0.0
2.0000000000 0.2142857143 0.0
2.0000000000 0.2857142857 0.0
2.0000000000 0.3571428571 0.0
2.0000000000 0.4285714286 0.0
2.0000000000 0.5000000000 0.0
0.0000000000 0.5000000000 0.0
0.0000000000 0.5714285714 0.0
0.0000000000 0.6428571429 0.0
0.0000000000 0.7142857143 0.0
0.0000000000 0.7857142857 0.0
0.0000000000 0.8571428571 0.0
0.0000000000 0.9285714286 0.0
0.0000000000 1.0000000000 0.0
0.0714285714 0.5000000000 0.0
0.0714285714 0.5714285714 0.0
0.0714285714 0.6428571429 0.0
0.0714285714 0.7142857143 0.0
0.0714285714 0.7857142857 0.0
0.0714285714 0.8571428571 0.0
0.0714285714 0.9285714286 0.0
0.0714285714 1.0000000000 0.0
0.1428571429 0.5000000000 0.0
0.1428571429 0.5714285714 0.0
0.1428571429 0.6428571429 0.0
0.1428571429 0.7142857143 0.0
0.1428571429 0.7857142857 0.0
0.1428571429 0.8571428571 0.0
0.1428571429 0.9285714286 0.0
0.1428571429 1.0000000000 0.0
0.2142857143 0.5000000000 0.0
0.2142857143 0.5714285714 0.0
0.2142857143 0.6428571429 0.0
0.2142857143 0.7142857143 0.0
0.2142857143 0.7857142857 0.0
0.2142857143 0.8571428571 0.0
0.2142857143 0.9285714286 0.0
0.2142857143 1.0000000000 0.0
0.2857142857 0.5000000000 0.0
0.2857142857 0.5714285714 0.0
0.2857142857 0.6428571429 0.0
0.2857142857 0.7142857143 0.0
0.2857142857 0.7857142857 0.0
0.2857142857 0.8571428571 0.0
0.2857142857 0.9285714286 0.0
0.2857142857 1.0000000000 0.0
0.3571428571 0.5000000000 0.0
0.3571428571 0.5714285714 0.0
0.3571428571 0.6428571429 0.0
0.3571428571 0.7142857143 0.0
0.3571428571 0.7857142857 0.0
0.3571428571 0.8571428571 0.0
0.3571428571 0.9285714286 0.0
0.3571428571 1.0000000000 0.0
0.4285714286 0.5000000000 0.0
0.4285714286 0.5714285714 0.0
0.4285714286 0.6428571429 0.0
0.4285714286 0.7142857143 0.0
0.4285714286 0.7857142857 0.0
0.4285714286 0.8571428571 0.0
0.4285714286 0.9285714286 0.0
0.4285714286 1.0000000000 0.0
0.5000000000 0.5000000000 0.0
0.5000000000 0.5714285714 0.0
0.5000000000 0.6428571429 0.0
0.5000000000 0.7142857143 0.0
0.5000000000 0.7857142857 0.0
0.5000000000 0.8571428571 0.0
0.5000000000 0.9285714286 0.0
0.5000000000 1.0000000000 0.0
0.5000000000 0.5000000000 0.0
0.5000000000 0.5714285714 0.0
0.5000000000 0.6428571429 0.0
0.5000000000 0.7142857143 0.0
0.5000000000 0.7857142857 0.0
0.5000000000 0.8571428571 0.0
0.5000000000 0.9285714286 0.0
0.5000000000 1.0000000000 0.0
[...]
POINT_DATA 512
SCALARS E_mag double 1 
LOOKUP_TABLE default
0.000000000000000 0.123022259101953 0.233221383553911 0.333707812615493 0.427591985546320 0.517984341606012 0.607995320054191 0.700735360150475 0.003168609706798 0.134840318870551 0.239703348222624 0.325120138629911 0.403238740317458 0.489043434550954 0.597788682479061 0.741496811318424 0.023767803262586 0.151390259122554 0.259332292173086 0.325491640086760 0.387425829140302 0.499140755151140 0.700343517266284 0.999617199978385 0.071449877005274 0.158561545134992 0.277295757898998 0.327420555004555 0.382382079850761 0.554128509022682 0.886332722369923 1.363873902837759 0.130518249618391 0.157801531196577 0.291165881740989 0.329725634354954 0.391123454940255 0.646365597199963 1.116773827019154 1.768850676852827 0.191613559199061 0.154301525313755 0.303626573756419 0.334184059142312 0.414201988154012 0.761874750303489 1.366079477705512 2.185330809533400 0.245376443844406 0.153819365212567 0.319292135645496 0.343510436963280 0.448623099534746 0.887495662813568 1.618488396840459 2.597231444794618 0.282447541651551 0.162417700454806 0.343700102949717 0.360602937353089 0.489245450420123 1.012774220927868 1.863097138905535 2.993367622656164 0.282447541651551 0.122393167763882 0.269605355566768 0.164140742074114 0.227351868980940 0.849047432131502 1.734886400301549 2.880587005215923 0.181956959882031 0.258888052763112 0.419751854534342 0.314443846715864 0.220611270238054 0.845448808720324 1.806212286304769 3.055018409082014 0.076141944157614 0.373375751563426 0.534427565474071 0.419908725240188 0.229610332706672 0.815362575967252 1.808618315649650 3.104557667914429 0.021171738917139 0.458552464238784 0.608375954944971 0.478690583466900 0.206239643596911 0.755248628138772 1.754148538225927 3.054604144216726 0.096158322737667 0.508986236634393 0.641307947814284 0.495667874383688 0.135719221656021 0.678646589580814 1.666551115074170 2.940780784349004 0.134992040699411 0.520145471003957 0.636456417812671 0.484090450994488 0.065157557262081 0.626955520649771 1.584604100913182 2.810657795554946 0.123847126197810 0.489526086040370 0.603486921781399 0.474596384944400 0.223550585421951 0.675509453532446 1.566110907920667 2.727273962947691 0.048897812628303 0.420918439300815 0.566028606811441 0.521587794808095 0.484544139223114 0.879666132563948 1.678424625135271 2.766869081239688 0.048897812628303 0.469673866588436 0.707117279487923 0.810272907489723 0.909937926205556 1.219051595796218 1.859543192041363 2.820744776132227 0.014129434114141 0.379826814180593 0.578429234816716 0.630710763250295 0.684983201339871 1.001248843272097 1.668175573734848 2.634938323900758 0.024727592035091 0.310229233498227 0.461572588615997 0.475539186066586 0.511884796422557 0.838571820533723 1.480948968594559 2.375344456226263 0.007062097760458 0.245712807925700 0.347593978134066 0.342626017352715 0.396123364565568 0.718482882404379 1.281149462717042 2.036358509828934 0.014701612083847 0.173823771151719 0.234223491913353 0.245166168323221 0.348134932743207 0.631114302699693 1.064314691912694 1.626019189942028 0.016398100871914 0.102189881406710 0.165692159744903 0.241956871033358 0.373068158044723 0.572703147463387 0.838561792307874 1.166413687529707 0.026138068022168 0.157216509729331 0.271730366236257 0.372368515071799 0.464198608657707 0.550874995600304 0.635573206636681 0.722471554835992 0.137072331224310 0.360442215882822 0.513501722637144 0.597532648332814 0.617780741545148 0.587699869810738 0.544217531638377 0.572704568654814 0.137072331224310 0.425265525365022 0.674026568466487 0.871406556804811 1.026695272887122 1.154936984431747 1.276962313338401 1.418705566199688 0.178309483283974 0.507708447078184 0.717544167868346 0.816702349000578 0.838126095106452 0.859013716027663 1.013519180734934 1.405373759300234 0.284131889583482 0.677981106806807 0.885356785843627 0.915706492416356 0.806439113924688 0.705429168086272 0.962760919939364 1.666173310524639 0.403624614846301 0.845392683180775 1.056104280021200 1.046170794541283 0.857597769086354 0.695379661700976 1.075273156684720 1.989087685138703 0.485872723795897 0.933755268810438 1.141435050565079 1.126126415595400 0.946018927633847 0.834147078130761 1.251522171677242 2.187040954713038 0.479961281155734 0.876723930693818 1.083558792820705 1.131875087876305 1.091375880993406 1.122544987202585 1.450473973636260 2.149282711652144 0.334975351649280 0.626850921370396 0.891296834271786 1.142157921521624 1.369728392816845 1.557438251915037 1.706124611699956 1.868007364688564 0.000000000000000 0.375111110181904 0.882673020665867 1.416326883880364 1.869713852253868 2.136475078214854 2.110251714191796 1.684684912613169 0.700735360150475 0.598876086608062 0.516237114856168 0.441637108238952 0.363894730100569 0.271828643785178 0.154257512636936 0.000000000000000 0.637728392563819 0.546311370120149 0.481206024453265 0.432285786467179 0.392692933209667 0.362613656492264 0.356751218124678 0.408255605786928 0.616426537844983 0.532518574317966 0.490458847245199 0.484742578744592 0.513377392943495 0.577801972702866 0.683167090486712 0.838388126050402 0.626041213837856 0.549528726943734 0.537320483627885 0.585098901864798 0.686655482104847 0.836530135464821 1.033061504224032 1.279271898804683 0.661541228182086 0.590372388767189 0.610948428899403 0.713721643313491 0.883712589631046 1.110129070785145 1.388589222064333 1.719781262064030 0.723112070553219 0.651201501986957 0.702352553121485 0.856687529562243 1.089091838025557 1.384909532610054 1.738380697920009 2.148790553842707 0.813994662939562 0.731372238679345 0.806121725240123 1.005463230499123 1.293217506753497 1.651075088356352 2.072275609698261 2.555174112154974 0.938607130520125 0.832516268059422 0.919642201213766 1.154540724456486 1.488896946701275 1.900116744938555 2.380475481082916 2.927806275015092 0.467456004043003 0.642632486663274 0.879934568335321 1.161331040152005 1.499505730280011 1.904937394895334 2.381324259726610 2.927806275015092 0.228630073633506 0.395344853779310 0.729060227040774 1.104951343830202 1.514063257204791 1.955454394865240 2.428545206716076 2.933722823306639 0.390145638128119 0.285557518102394 0.609424452444129 1.009123469640247 1.423107407984897 1.842675038241453 2.266828459323652 2.699543130435586 0.567303601291126 0.263753770267815 0.475123883564435 0.856985328368360 1.240978162642785 1.608761970210825 1.959053971825476 2.299217606967507 0.700005608439157 0.274613365696998 0.294888216294247 0.652027791132256 0.996164195172309 1.302437168092658 1.569667213169244 1.806696663467978 0.834243880137765 0.362193969166827 0.058673594010341 0.423074313581588 0.730638838021529 0.977786690534527 1.164193787141362 1.295930710502569 1.037874475411473 0.591278496166104 0.291222291632771 0.337022950947415 0.541266414345153 0.710938304946290 0.813437214123354 0.840870158636856 1.363917115319413 0.963494839676038 0.718954495640308 0.631297607234438 0.634896681208031 0.644393383510330 0.610559928616188 0.515465418436412 1.470138250920068 0.783107070971003 0.308759002449198 0.255096506311188 0.447495085199983 0.568549398101114 0.591875989442793 0.515465418436412 1.376484816723635 0.667305007314907 0.166868879264221 0.234584474093565 0.418378276398836 0.464560296526913 0.377389365563818 0.166052812199649 1.239715307307751 0.620647569253793 0.302944501154501 0.352585699935148 0.419076112089408 0.359561131950200 0.175878094333686 0.255147563295450 1.001081567201918 0.540266043529718 0.374798426912052 0.406735226042067 0.411338319538980 0.352289169701631 0.398493029382877 0.738930330138336 0.654696122423433 0.385411717387768 0.343701327236316 0.393305737590336 0.446513200014275 0.562217742313814 0.830897451700299 1.276090110418459 0.246055995002500 0.159104435347197 0.236253356737650 0.392830744009529 0.618232179885906 0.929980918522725 1.340595313910805 1.857421526225269 0.399509268743196 0.231541910406448 0.265899709248242 0.561091095533715 0.949985104448385 1.401270292594668 1.909271929424545 2.473719199648219 0.972184144902939 0.641916757965234 0.607020814363906 0.936801483893597 1.417772506148017 1.956935566963115 2.526828538083531 3.115777752776758 1.621689542486027 1.111362960482758 0.853663862653867 1.010786103443314 1.438383769101495 1.963895189790537 2.528720740363464 3.115777752776758 1.638614485625348 1.177395401278486 1.030643297883526 1.273672581756360 1.728361820254690 2.256053517207696 2.806253388869419 3.361963874701950 1.687306181104254 1.249616197868083 1.194663023381454 1.497998560716954 1.958571243510538 2.460446250144969 2.962581653817390 3.452015180271462 1.730246616130229 1.326730767743148 1.337693664886456 1.656566535967929 2.084514244713332 2.524660325752929 2.945506010408163 3.341353113405758 1.735232945739286 1.408237600022399 1.453310451369592 1.728019034908694 2.068856632864173 2.400989052522206 2.704355151829003 2.985399118025299 1.690416997968699 1.495012613736481 1.540058466740786 1.705384700519036 1.891246071923584 2.054117959891695 2.193006877362000 2.339574638050545 1.630930695544311 1.589926457432912 1.606491982383750 1.619613688122784 1.589092188704804 1.502452068957576 1.389655451378616 1.359301117401958 1.684684912613169 1.698398903853424 1.678437796371247 1.594129996505956 1.414803910596868 1.109787944983301 0.648410506004572 0.000000000000000 SCALARS E_x double 1 
LOOKUP_TABLE default
0.000000000000000 -0.123022259101953 -0.233221383553911 -0.333707812615493 -0.427591985546320 -0.517984341606012 -0.607995320054191 -0.700735360150475 0.000000000000000 -0.119140239595131 -0.224446969724657 -0.318313472016941 -0.403133028100347 -0.481298919603238 -0.555204428153978 -0.627242835380929 0.000000000000000 -0.115796970670923 -0.217738880174517 -0.307655127225679 -0.387375110539306 -0.458728228830293 -0.523543880813537 -0.583651465203934 0.000000000000000 -0.112992452329328 -0.213097114903491 -0.301732778241707 -0.380318232863195 -0.450272269287176 -0.513013678032868 -0.569961249619490 0.000000000000000 -0.110726684570348 -0.210521673911578 -0.300546425065023 -0.381962395072015 -0.455931040973887 -0.523613819811971 -0.586172188627598 0.000000000000000 -0.108999667393980 -0.210012557198778 -0.304096067695629 -0.392307597165767 -0.475704543890427 -0.555344306150846 -0.632284282228257 0.000000000000000 -0.107811400800227 -0.211569764765092 -0.312381706133524 -0.411353839144449 -0.509592778036796 -0.608205137049493 -0.708297530421467 0.000000000000000 -0.107161884789088 -0.215193296610520 -0.325403340378708 -0.439101121008062 -0.557595743412993 -0.682196312507912 -0.814211933207229 0.000000000000000 0.009178651633034 0.029418393714494 0.052868125657966 0.071676746877036 0.077993156785291 0.063966254796316 0.021744940323697 0.000000000000000 0.052037762495425 0.100537260583763 0.143418703002945 0.178602298490906 0.204008255785575 0.217556783624887 0.217168090746773 0.000000000000000 0.074321257601727 0.134966651763957 0.183979197523556 0.223401909917387 0.255277803982316 0.281649894755209 0.304561197272929 0.000000000000000 0.076029136951940 0.132706567255078 0.174549609219797 0.206075581156481 0.231801801375514 0.256245588187281 0.283924259902166 0.000000000000000 0.057161400546065 0.093757007057124 0.115129938091668 0.126623312208187 0.133580247965169 0.141343863921105 0.155257278634484 0.000000000000000 0.017718048384100 0.018117971170096 0.005720184139171 -0.014954896927495 -0.039386856248720 -0.063055278043321 -0.081439746530117 0.000000000000000 -0.042300919533954 -0.094210540406006 -0.153679652637696 -0.218659046250565 -0.287099511266151 -0.356951837705996 -0.426166815591638 0.000000000000000 -0.122895503208097 -0.243228527671182 -0.363069572238933 -0.484489135761022 -0.609557717087126 -0.740345815066920 -0.878923928550077 0.000000000000000 0.241918401783471 0.488657937513136 0.718545663966347 0.909908637920457 1.041073916152816 1.090368555440777 1.036119612561692 0.000000000000000 0.212021815987375 0.404482622348147 0.564698559851189 0.679985769265372 0.737660391359567 0.725038566902647 0.629436436663482 0.000000000000000 0.182997269855507 0.329536899969796 0.434465303318188 0.492628892876006 0.498874081618573 0.448047282521209 0.334994908559238 0.000000000000000 0.154844763387869 0.263820770378083 0.327845894367346 0.347838008752362 0.324714986929833 0.259394702296465 0.152795028248959 0.000000000000000 0.127564296584459 0.207334233573008 0.244840332998662 0.245613116894437 0.215183107293349 0.159080826228413 0.082836795732645 0.000000000000000 0.101155869445278 0.160077289554571 0.185448619212136 0.185954217302233 0.170278442709119 0.147105654317054 0.125120211010295 0.000000000000000 0.075619481970326 0.122049938322772 0.149670753007769 0.168861309975749 0.190000993177145 0.223469186562388 0.279645274081911 0.000000000000000 0.050955134159603 0.093252179877611 0.137506734385559 0.194334394914985 0.274350758697425 0.388171422964415 0.546411984947491 0.000000000000000 0.231362489982046 0.446456901502620 0.649008646645151 0.842743137493069 1.031385786129803 1.218662004638780 1.408297205103432 0.000000000000000 0.143006816221959 0.275694075441787 0.413555384470390 0.572084350118671 0.766774579197534 1.013119678517885 1.326613254890627 0.000000000000000 0.090948206105703 0.182624387551862 0.293125506698416 0.440548525905300 0.642990407532453 0.918548113939813 1.285318607487316 0.000000000000000 0.075186659633280 0.167247837832846 0.287719013329229 0.448135664852957 0.660033271134559 0.934947310904563 1.284413262893499 0.000000000000000 0.095722176804688 0.229564426284739 0.397335904362831 0.594845766961643 0.817903170003852 1.062317269412137 1.323897221109176 0.000000000000000 0.152554757619928 0.369574152907540 0.621976179799220 0.880678832231356 1.116600104140332 1.300657989462534 1.403770482134347 0.000000000000000 0.245684402079000 0.587277017701249 0.961639839638398 1.305634860662098 1.556124073543999 1.649969471055753 1.524033045969011 0.000000000000000 0.375111110181904 0.882673020665867 1.416326883880364 1.869713852253868 2.136475078214854 2.110251714191796 1.684684912613169 -0.700735360150475 -0.598876086608062 -0.516237114856168 -0.441637108238952 -0.363894730100569 -0.271828643785178 -0.154257512636936 0.000000000000000 -0.627242835380929 -0.534348480790738 -0.464232619230683 -0.403885801932695 -0.340298580128702 -0.260461505050635 -0.151365127930425 0.000000000000000 -0.583651465203934 -0.489157566984991 -0.422515577991325 -0.369237376182874 -0.314834839519577 -0.244819845961374 -0.144704273468202 0.000000000000000 -0.569961249619490 -0.463303345190821 -0.391085991138092 -0.337691830989489 -0.287503508273195 -0.224903666517393 -0.134274949250267 0.000000000000000 -0.586172188627598 -0.456785815408226 -0.369943858670986 -0.309249166352540 -0.258304586389555 -0.200712966718694 -0.120077155276620 0.000000000000000 -0.632284282228257 -0.469604977637209 -0.359089180590005 -0.283909382272028 -0.227238073868657 -0.172247746565275 -0.102110891547262 0.000000000000000 -0.708297530421467 -0.501760831877768 -0.358521956895151 -0.261672478747951 -0.194303970710502 -0.139508006057138 -0.080376158062193 0.000000000000000 -0.814211933207229 -0.553253378129904 -0.368242187586423 -0.242538455780311 -0.159502276915090 -0.102493745194282 -0.054872954821411 0.000000000000000 0.021744940323697 -0.161190808495973 -0.253269372440891 -0.273039196681221 -0.239048726387131 -0.169846406728787 -0.083980682876354 0.000000000000000 0.217168090746773 0.095930650015513 0.041850674223760 0.032676369961297 0.046155943817906 0.060037602383370 0.052069552247474 0.000000000000000 0.304561197272929 0.236445701239639 0.216753815479812 0.221352724542516 0.226109612976819 0.206891665331788 0.139566066156493 0.000000000000000 0.283924259902166 0.260354345176402 0.271440051327263 0.292989867062435 0.300812281089607 0.270715782116467 0.178508858850702 0.000000000000000 0.155257278634484 0.167656581825804 0.205909381766114 0.247587797521055 0.270263948156272 0.251509952737406 0.168897930330101 0.000000000000000 -0.081439746530117 -0.041647588812156 0.020161806796364 0.085146515918376 0.134464614176812 0.149274177194606 0.110733280594691 0.000000000000000 -0.426166815591638 -0.367558166737477 -0.285802673581985 -0.194333977745603 -0.106585720848772 -0.035991544511934 0.004014909644471 0.000000000000000 -0.878923928550077 -0.810075151950161 -0.711984059368935 -0.590853683470882 -0.452887056920481 -0.304287212382213 -0.151257182520559 0.000000000000000 1.036119612561692 0.584085721730556 0.292160667420312 0.125082508382889 0.047589303370217 0.024419111134225 0.020309990426843 0.000000000000000 0.629436436663482 0.226046714971304 -0.030122674041539 -0.164709883834596 -0.203353067867420 -0.171690379599561 -0.095359972490571 0.000000000000000 0.334994908559238 -0.012840623189604 -0.232868422231776 -0.341777304943203 -0.356256087699813 -0.292993586877532 -0.168678618852285 0.000000000000000 0.152795028248959 -0.132576292752168 -0.316076577150400 -0.406119754942933 -0.411119756126963 -0.339490510699687 -0.199645948658301 0.000000000000000 0.082836795732645 -0.133160293716388 -0.279747138797411 -0.357737233833785 -0.367944073148870 -0.311181151066027 -0.188261961908617 0.000000000000000 0.125120211010295 -0.014592626082265 -0.123880107172810 -0.196629741615759 -0.226729038765533 -0.208065507976551 -0.134526658603234 0.000000000000000 0.279645274081911 0.223126710150202 0.151524517723405 0.077202721711145 0.012525347023048 -0.030143581431260 -0.038440038742151 0.000000000000000 0.546411984947491 0.579997714981014 0.546466735891233 0.463760156146926 0.349819084216872 0.222584628569847 0.099997897674631 0.000000000000000 1.408297205103432 1.076785891047798 0.811722621814693 0.599303770318771 0.425725709474687 0.277184812197095 0.139877451400648 0.000000000000000 1.326613254890627 1.140754571963362 0.965205803593544 0.793049501778140 0.617368218514118 0.431244505798443 0.227760915628081 0.000000000000000 1.285318607487316 1.213000978897815 1.108800075948804 0.969586000188538 0.792228853165270 0.573598736427255 0.310565751522747 0.000000000000000 1.284413262893499 1.293525111851158 1.242505438880474 1.128913265549964 0.950307613428145 0.704247504083534 0.388291959084647 0.000000000000000 1.323897221109176 1.382326970823390 1.366321892388553 1.271031297862419 1.091604499302742 0.823190808767278 0.460939538313779 0.000000000000000 1.403770482134347 1.479406555814512 1.480249436473042 1.395940097125902 1.216119510789062 0.930428650478487 0.528508489210144 0.000000000000000 1.524033045969011 1.584763866824523 1.584288071133940 1.503639663340415 1.323852647887104 1.025961029217161 0.590998811773742 0.000000000000000 1.684684912613169 1.698398903853424 1.678437796371247 1.594129996505956 1.414803910596868 1.109787944983301 0.648410506004572 0.000000000000000 SCALARS E_y double 1 
LOOKUP_TABLE default