# vtk DataFile Version 3.0
# File generated by fem_2d on: 1643678222.18548671s

ASCII
DATASET UNSTRUCTURED_GRID

POINTS 512 double
0.0000000000 0.0000000000 0.0
0.0000000000 0.0714285714 0.0
0.0000000000 0.1428571429 0.0
0.0000000000 0.2142857143 0.0
0.0000000000 0.2857142857 0.0
0.0000000000 0.3571428571 0.0
0.0000000000 0.4285714286 0.0
0.0000000000 0.5000000000 0.0
0.0714285714 0.0000000000 0.0
0.0714285714 0.0714285714 0.0
0.0714285714 0.1428571429 0.0
0.0714285714 0.2142857143 0.0
0.0714285714 0.2857142857 0.0
0.0714285714 0.3571428571 0.0
0.0714285714 0.4285714286 0.0
0.0714285714 0.5000000000 0.0
0.1428571429 0.0000000000 0.0
0.1428571429 0.0714285714 0.0
0.1428571429 0.1428571429 0.0
0.1428571429 0.2142857143 0.0
0.1428571429 0.2857142857 0.0
0.1428571429 0.3571428571 0.0
0.1428571429 0.4285714286 0.0
0.1428571429 0.5000000000 0.0
0.2142857143 0.0000000000 0.0
0.2142857143 0.0714285714 0.0
0.2142857143 0.1428571429 0.0
0.2142857143 0.2142857143 0.0
0.2142857143 0.2857142857 0.0
0.2142857143 0.3571428571 0.0
0.2142857143 0.4285714286 0.0
0.2142857143 0.5000000000 0.0
0.2857142857 0.0000000000 0.0
0.2857142857 0.0714285714 0.0
0.2857142857 0.1428571429 0.0
0.2857142857 0.2142857143 0.0
0.2857142857 0.2857142857 0.0
0.2857142857 0.3571428571 0.0
0.2857142857 0.4285714286 0.0
0.2857142857 0.5000000000 0.0
0.3571428571 0.0000000000 0.0
0.3571428571 0.0714285714 0.0
0.3571428571 0.1428571429 0.0
0.3571428571 0.2142857143 0.0
0.3571428571 0.2857142857 0.0
0.3571428571 0.3571428571 0.0
0.3571428571 0.4285714286 0.0
0.3571428571 0.5000000000 0.0
0.4285714286 0.0000000000 0.0
0.4285714286 0.0714285714 0.0
0.4285714286 0.1428571429 0.0
0.4285714286 0.2142857143 0.0
0.4285714286 0.2857142857 0.0
0.4285714286 0.3571428571 0.0
0.4285714286 0.4285714286 0.0
0.4285714286 0.5000000000 0.0
0.5000000000 0.0000000000 0.0
0.5000000000 0.0714285714 0.0
0.5000000000 0.1428571429 0.0
0.5000000000 0.2142857143 0.0
0.5000000000 0.2857142857 0.0
0.5000000000 0.3571428571 0.0
0.5000000000 0.4285714286 0.0
0.5000000000 0.5000000000 0.0
0.5000000000 0.0000000000 0.0
0.5000000000 0.0714285714 0.0
0.5000000000 0.1428571429 0.0
0.5000000000 0.2142857143 0.0
0.5000000000 0.2857142857 0.0
0.5000000000 0.3571428571 0.0
0.5000000000 0.4285714286 0.0
0.5000000000 0.5000000000 0.0
0.5714285714 0.0000000000 0.0
0.5714285714 0.0714285714 0.0
0.5714285714 0.1428571429 0.0
0.5714285714 0.2142857143 0.0
0.5714285714 0.2857142857 0.0
0.5714285714 0.3571428571 0.0
0.5714285714 0.4285714286 0.0
0.5714285714 0.5000000000 0.0
0.6428571429 0.0000000000 0.0
0.6428571429 0.0714285714 0.0
0.6428571429 0.1428571429 0.0
0.6428571429 0.2142857143 0.0
0.6428571429 0.2857142857 0.0
0.6428571429 0.3571428571 0.0
0.6428571429 0.4285714286 0.0
0.6428571429 0.5000000000 0.0
0.7142857143 0.0000000000 0.0
0.7142857143 0.0714285714 0.0
0.7142857143 0.1428571429 0.0
0.7142857143 0.2142857143 0.0
0.7142857143 0.2857142857 0.0
0.7142857143 0.3571428571 0.0
0.7142857143 0.4285714286 0.0
0.7142857143 0.5000000000 0.0
0.7857142857 0.0000000000 0.0
0.7857142857 0.0714285714 0.0
0.7857142857 0.1428571429 0.0
0.7857142857 0.2142857143 0.0
0.7857142857 0.2857142857 0.0
0.7857142857 0.3571428571 0.0
0.7857142857 0.4285714286 0.0
0.7857142857 0.5000000000 0.0
0.8571428571 0.0000000000 0.0
0.8571428571 0.0714285714 0.0
0.8571428571 0.1428571429 0.0
0.8571428571 0.2142857143 0.0
0.8571428571 0.2857142857 0.0
0.8571428571 0.3571428571 0.0
0.8571428571 0.4285714286 0.0
0.8571428571 0.5000000000 0.0
0.9285714286 0.0000000000 0.0
0.9285714286 0.0714285714 0.0
0.9285714286 0.1428571429 0.0
0.9285714286 0.2142857143 0.0
0.9285714286 0.2857142857 0.0
0.9285714286 0.3571428571 0.0
0.9285714286 0.4285714286 0.0
0.9285714286 0.5000000000 0.0
1.0000000000 0.0000000000 0.0
1.0000000000 0.0714285714 0.0
1.0000000000 0.1428571429 0.0
1.0000000000 0.2142857143 0.0
1.0000000000 0.2857142857 0.0
1.0000000000 0.3571428571 0.0
1.0000000000 0.4285714286 0.0
1.0000000000 0.5000000000 0.0
1.0000000000 0.0000000000 0.0
1.0000000000 0.0714285714 0.0
1.0000000000 0.1428571429 0.0
1.0000000000 0.2142857143 0.0
1.0000000000 0.2857142857 0.0
1.0000000000 0.3571428571 0.0
1.0000000000 0.4285714286 0.0
1.0000000000 0.5000000000 0.0
1.0714285714 0.0000000000 0.0
1.0714285714 0.0714285714 0.0
1.0714285714 0.1428571429 0.0
1.0714285714 0.2142857143 0.0
1.0714285714 0.2857142857 0.0
1.0714285714 0.3571428571 0.0
1.0714285714 0.4285714286 0.0
1.0714285714 0.5000000000 0.0
1.1428571429 0.0000000000 0.0
1.1428571429 0.0714285714 0.0
1.1428571429 0.1428571429 0.0
1.1428571429 0.2142857143 0.0
1.1428571429 0.2857142857 0.0
1.1428571429 0.3571428571 0.0
1.1428571429 0.4285714286 0.0
1.1428571429 0.5000000000 0.0
1.2142857143 0.0000000000 0.0
1.2142857143 0.0714285714 0.0
1.2142857143 0.1428571429 0.0
1.2142857143 0.2142857143 0.0
1.2142857143 0.2857142857 0.0
1.2142857143 0.3571428571 0.0
1.2142857143 0.4285714286 0.0
1.2142857143 0.5000000000 0.0
1.2857142857 0.0000000000 0.0
1.2857142857 0.0714285714 0.0
1.2857142857 0.1428571429 0.0
1.2857142857 0.2142857143 0.0
1.2857142857 0.2857142857 0.0
1.2857142857 0.3571428571 0.0
1.2857142857 0.4285714286 0.0
1.2857142857 0.5000000000 0.0
1.3571428571 0.0000000000 0.0
1.3571428571 0.0714285714 0.0
1.3571428571 0.1428571429 0.0
1.3571428571 0.2142857143 0.0
1.3571428571 0.2857142857 0.0
1.3571428571 0.3571428571 0.0
1.3571428571 0.4285714286 0.0
1.3571428571 0.5000000000 0.0
1.4285714286 0.0000000000 0.0
1.4285714286 0.0714285714 0.0
1.4285714286 0.1428571429 0.0
1.4285714286 0.2142857143 0.0
1.4285714286 0.2857142857 0.0
1.4285714286 0.3571428571 0.0
1.4285714286 0.4285714286 0.0
1.4285714286 0.5000000000 0.0
1.5000000000 0.0000000000 0.0
1.5000000000 0.0714285714 0.0
1.5000000000 0.1428571429 0.0
1.5000000000 0.2142857143 0.0
1.5000000000 0.2857142857 0.0
1.5000000000 0.3571428571 0.0
1.5000000000 0.4285714286 0.0
1.5000000000 0.5000000000 0.0
1.5000000000 0.0000000000 0.0
1.5000000000 0.0714285714 0.0
1.5000000000 0.1428571429 0.0
1.5000000000 0.2142857143 0.0
1.5000000000 0.2857142857 0.0
1.5000000000 0.3571428571 0.0
1.5000000000 0.4285714286 0.0
1.5000000000 0.5000000000 0.0
1.5714285714 0.0000000000 0.0
1.5714285714 0.0714285714 0.0
1.5714285714 0.1428571429 0.0
1.5714285714 0.2142857143 0.0
1.5714285714 0.2857142857 0.0
1.5714285714 0.3571428571 0.0
1.5714285714 0.4285714286 0.0
1.5714285714 0.5000000000 0.0
1.6428571429 0.0000000000 0.0
1.6428571429 0.0714285714 0.0
1.6428571429 0.1428571429 0.0
1.6428571429 0.2142857143 0.0
1.6428571429 0.2857142857 0.0
1.6428571429 0.3571428571 0.0
1.6428571429 0.4285714286 0.0
1.6428571429 0.5000000000 0.0
1.7142857143 0.0000000000 0.0
1.7142857143 0.0714285714 0.0
1.7142857143 0.1428571429 0.0
1.7142857143 0.2142857143 0.0
1.7142857143 0.2857142857 0.0
1.7142857143 0.3571428571 0.0
1.7142857143 0.4285714286 0.0
1.7142857143 0.5000000000 0.0
1.7857142857 0.0000000000 0.0
1.7857142857 0.0714285714 0.0
1.7857142857 0.1428571429 0.0
1.7857142857 0.2142857143 0.0
1.7857142857 0.2857142857 0.0
1.7857142857 0.3571428571 0.0
1.7857142857 0.4285714286 0.0
1.7857142857 0.5000000000 0.0
1.8571428571 0.0000000000 0.0
1.8571428571 0.0714285714 0.0
1.8571428571 0.1428571429 0.0
1.8571428571 0.2142857143 0.0
1.8571428571 0.2857142857 0.0
1.8571428571 0.3571428571 0.0
1.8571428571 0.4285714286 0.0
1.8571428571 0.5000000000 0.0
1.9285714286 0.0000000000 0.0
1.9285714286 0.0714285714 0.0
1.9285714286 0.1428571429 0.0
1.9285714286 0.2142857143 0.0
1.9285714286 0.2857142857 0.0
1.9285714286 0.3571428571 0.0
1.9285714286 0.4285714286 0.0
1.9285714286 0.5000000000 0.0
2.0000000000 0.0000000000 0.0
2.0000000000 0.0714285714 0.0
2.0000000000 0.1428571429 0.0
2.0000000000 0.2142857143 0.0
2.0000000000 0.2857142857 0.0
2.0000000000 0.3571428571 0.0
2.0000000000 0.4285714286 0.0
2.0000000000 0.5000000000 0.0
0.0000000000 0.5000000000 0.0
0.0000000000 0.5714285714 0.0
0.0000000000 0.6428571429 0.0
0.0000000000 0.7142857143 0.0
0.0000000000 0.7857142857 0.0
0.0000000000 0.8571428571 0.0
0.0000000000 0.9285714286 0.0
0.0000000000 1.0000000000 0.0
0.0714285714 0.5000000000 0.0
0.0714285714 0.5714285714 0.0
0.0714285714 0.6428571429 0.0
0.0714285714 0.7142857143 0.0
0.0714285714 0.7857142857 0.0
0.0714285714 0.8571428571 0.0
0.0714285714 0.9285714286 0.0
0.0714285714 1.0000000000 0.0
0.1428571429 0.5000000000 0.0
0.1428571429 0.5714285714 0.0
0.1428571429 0.6428571429 0.0
0.1428571429 0.7142857143 0.0
0.1428571429 0.7857142857 0.0
0.1428571429 0.8571428571 0.0
0.1428571429 0.9285714286 0.0
0.1428571429 1.0000000000 0.0
0.2142857143 0.5000000000 0.0
0.2142857143 0.5714285714 0.0
0.2142857143 0.6428571429 0.0
0.2142857143 0.7142857143 0.0
0.2142857143 0.7857142857 0.0
0.2142857143 0.8571428571 0.0
0.2142857143 0.9285714286 0.0
0.2142857143 1.0000000000 0.0
0.2857142857 0.5000000000 0.0
0.2857142857 0.5714285714 0.0
0.2857142857 0.6428571429 0.0
0.2857142857 0.7142857143 0.0
0.2857142857 0.7857142857 0.0
0.2857142857 0.8571428571 0.0
0.2857142857 0.9285714286 0.0
0.2857142857 1.0000000000 0.0
0.3571428571 0.5000000000 0.0
0.3571428571 0.5714285714 0.0
0.3571428571 0.6428571429 0.0
0.3571428571 0.7142857143 0.0
0.3571428571 0.7857142857 0.0
0.3571428571 0.8571428571 0.0
0.3571428571 0.9285714286 0.0
0.3571428571 1.0000000000 0.0
0.4285714286 0.5000000000 0.0
0.4285714286 0.5714285714 0.0
0.4285714286 0.6428571429 0.0
0.4285714286 0.7142857143 0.0
0.4285714286 0.7857142857 0.0
0.4285714286 0.8571428571 0.0
0.4285714286 0.9285714286 0.0
0.4285714286 1.0000000000 0.0
0.5000000000 0.5000000000 0.0
0.5000000000 0.5714285714 0.0
0.5000000000 0.6428571429 0.0
0.5000000000 0.7142857143 0.0
0.5000000000 0.7857142857 0.0
0.5000000000 0.8571428571 0.0
0.5000000000 0.9285714286 0.0
0.5000000000 1.0000000000 0.0
0.5000000000 0.5000000000 0.0
0.5000000000 0.5714285714 0.0
0.5000000000 0.6428571429 0.0
0.5000000000 0.7142857143 0.0
0.5000000000 0.7857142857 0.0
0.5000000000 0.8571428571 0.0
0.5000000000 0.9285714286 0.0
0.5000000000 1.0000000000 0.0
[...]
POINT_DATA 512
SCALARS E_y double 1 
LOOKUP_TABLE default
0.000000000000000 0.000000000000000 0.000000000000000 0.000000000000000 0.000000000000000 0.000000000000000 0.000000000000000 0.000000000000000 0.424209713779263 0.252372524281441 0.116216526464017 0.015741720326989 -0.049051894129641 -0.078164316905875 -0.071595548001711 -0.029345587417151 0.849843871230608 0.516433877486252 0.247361738538904 0.042627454388562 -0.097768974964772 -0.173827549521099 -0.185548269280418 -0.132931134242730 1.271612789947733 0.786989536808476 0.389514167025678 0.079186680599339 -0.143992922470540 -0.280024642183959 -0.328908478540919 -0.290644431541420 1.684226787524333 1.058844979442155 0.538752342725357 0.123948877373942 -0.185565416612092 -0.389790539232744 -0.488726490488015 -0.482373270377904 2.082396181554104 1.326805682581331 0.691154796438959 0.175443523126990 -0.220328137354576 -0.496160185005741 -0.652052619826503 -0.688005441816863 2.460831289630743 1.585677123420047 0.842800058967502 0.232200096273106 -0.246122764663140 -0.592168523841237 -0.805937181261183 -0.887428736922980 2.814242429347944 1.830264779152347 0.989766661112002 0.292748075226909 -0.260790978502932 -0.670850500077520 -0.937430489496855 -1.060530946760938 2.814242429347944 1.830264779152347 0.989766661112002 0.292748075226909 -0.260790978502932 -0.670850500077520 -0.937430489496855 -1.060530946760938 2.929023044989340 1.917985715272789 1.050838102253516 0.327580205931519 -0.251787973693199 -0.687266436620641 -0.978855182850806 -1.126554212383693 2.816460389559981 1.846432987509957 1.008924122451597 0.303933794384901 -0.268537996690132 -0.708491250773501 -1.015925967865206 -1.190842147965248 2.541333822603483 1.664098391032050 0.899108955081274 0.246365514751157 -0.294131929958303 -0.722383379047104 -1.038388832515247 -1.242148290362733 2.168422703663461 1.419473721007263 0.756476833517573 0.179432041194389 -0.311660655962287 -0.716801257952457 -1.035989764776120 -1.269226176433276 1.762506392283526 1.161050772603795 0.616111991135521 0.127690047878703 -0.304215057166659 -0.679603324000565 -0.998474752623014 -1.260829343034008 1.388364248007292 0.937321340989843 0.513098661310146 0.115696208968201 -0.254886016035992 -0.598648013702433 -0.915589784031122 -1.205711327022058 1.110775630378374 0.796777221333604 0.482521077416474 0.168007198626986 -0.146764415034861 -0.461793763569067 -0.777080846975632 -1.092625665254555 1.110775630378374 0.796777221333604 0.482521077416474 0.168007198626986 -0.146764415034861 -0.461793763569067 -0.777080846975632 -1.092625665254555 0.605346796217228 0.564718845555871 0.479003957200800 0.348202131152014 0.172313367409512 -0.048662334026704 -0.314724973156636 -0.625874549980283 -0.061606568889367 0.201472907983256 0.369974940581427 0.443899528905146 0.423246672954413 0.308016372729228 0.098208628229591 -0.206176560544499 -0.854642938228564 -0.267653051146175 0.171657814189207 0.463289657777581 0.607242479618947 0.603516279713306 0.452111058060658 0.153026814661002 -1.738320785087520 -0.817351491594356 -0.099723635345012 0.414562783660514 0.725507765422220 0.833111309940108 0.737373417214176 0.438294087244425 -2.677198582753389 -1.422314873123221 -0.427945621390377 0.305909172445142 0.779249508383338 0.992075386424208 0.944386806567754 0.636183768813976 -3.635834804513331 -2.057235655494704 -0.796784357316040 0.145519090022663 0.769674686521405 1.075682432180184 1.063542326999003 0.733254370977859 -4.578787923654497 -2.696806298470739 -1.190016056491149 -0.058417197715727 0.697990277855527 1.079206370222613 1.085231079385531 0.716064405344281 -4.578787923654497 -2.696806298470739 -1.190016056491149 -0.058417197715727 0.697990277855527 1.079206370222613 1.085231079385531 0.716064405344281 -4.537674226984246 -2.691167392071437 -1.211879277589956 -0.099809883539801 0.645040790079027 1.022672743266527 1.033085976022701 0.676280488347548 -4.290183658841506 -2.593395485473102 -1.231998509861254 -0.205992732005963 0.484621848092772 0.839845230434950 0.859677415020571 0.544118401849635 -3.837542569339405 -2.382846551547277 -1.213047043624897 -0.328144045572267 0.271862442610613 0.586972420923745 0.617185889367127 0.362502847940761 -3.180977308591075 -2.038876563165509 -1.117698169200740 -0.417442126696769 0.061891564346405 0.320302903928781 0.357791892050360 0.174358528711141 -2.321714226709644 -1.540841493199343 -0.908625176908636 -0.425065277837522 -0.090161795986002 0.096085268645925 0.133675916058257 0.022610146250996 -1.260979673808242 -0.868097314520325 -0.548501357068438 -0.302191801452581 -0.129168647672754 -0.029431895728958 -0.002981545621192 -0.049817597349457 0.000000000000000 0.000000000000000 0.000000000000000 0.000000000000000 0.000000000000000 0.000000000000000 0.000000000000000 0.000000000000000 0.000000000000000 0.000000000000000 0.000000000000000 0.000000000000000 0.000000000000000 0.000000000000000 0.000000000000000 0.000000000000000 -0.022448769151809 0.010216882407353 0.031747891326523 0.042144257605702 0.041405981244889 0.029533062244086 0.006525500603291 -0.027616703677496 -0.066406882712111 0.010468642959533 0.063614599246526 0.093030986148867 0.098717803666557 0.080675051799596 0.038902730547984 -0.026599160088279 -0.119666439310567 0.007547844918578 0.097966088392335 0.151588291110703 0.168414453073684 0.148444574281276 0.091678654733481 -0.001883305569703 -0.170019537576841 0.008247051546523 0.137168323396276 0.216744277972418 0.246974915274949 0.227860235303870 0.159400238059179 0.041594923540877 -0.205258276140594 0.019358826105405 0.183587268890676 0.287427052215219 0.330878176079034 0.313940640482120 0.236614445424478 0.098899590906108 -0.213174753631488 0.047675731857261 0.239588889507861 0.362564719320313 0.416603221294617 0.401704395430771 0.317868241728777 0.165094760188635 -0.181561068679185 0.099990332064126 0.307539149880158 0.441085384768908 0.500629036730378 0.486170105764568 0.397708591871477 0.235244495051105 -0.181561068679185 0.099990332064126 0.307539149880158 0.441085384768908 0.500629036730378 0.486170105764568 0.397708591871477 0.235244495051105 -0.165541367679651 0.133388279925943 0.347075534959110 0.475520397419850 0.518722867308162 0.476682944624048 0.349400629367506 0.136875921538536 -0.134697482403126 0.155229513411818 0.354047160260626 0.461755458143296 0.478354407059830 0.403844007010226 0.238224257994486 -0.018504839987392 -0.058334115115232 0.185004507650119 0.339156901884666 0.404123067588408 0.379903004761346 0.266496713403479 0.063904193514807 -0.227874554904669 0.094244031918411 0.242203737769214 0.313107635931193 0.306955726404347 0.223748009188676 0.063484484284181 -0.173834848309138 -0.488209988591283 0.353732256432181 0.346317678897470 0.286602238500168 0.174585935240273 0.010268769117787 -0.206349259867291 -0.475268151714960 -0.796487906425222 0.750825856160459 0.516836806163256 0.270343585691552 0.011346194745348 -0.260155366675357 -0.544161098570562 -0.840671000940269 -1.149685073784475 1.316220128837622 0.773251594694938 0.275034553605307 -0.178430994431269 -0.587145049414791 -0.951107611345258 -1.270318680222672 -1.544778256047031 1.316220128837622 0.773251594694938 0.275034553605307 -0.178430994431269 -0.587145049414791 -0.951107611345258 -1.270318680222672 -1.544778256047031 1.120069327644944 0.540371520514859 0.026349895006400 -0.421995548880434 -0.804664811145644 -1.121657891789229 -1.372974790811190 -1.558615508211526 0.926258307283332 0.357360465012643 -0.129430167961405 -0.534113591638809 -0.856689806019572 -1.097158811103692 -1.255520606891170 -1.331775193382005 0.735931923517204 0.214887485293880 -0.211592828421540 -0.543509017629059 -0.780861082328674 -0.923649022520388 -0.971872838204199 -0.925532529380107 0.550235032110974 0.103621638464167 -0.239425279497440 -0.478905721773847 -0.614819688365054 -0.647167179271060 -0.575948194491865 -0.401162734027471 0.370312488829057 0.014231981629094 -0.232214714312538 -0.369027598995840 -0.396206672420810 -0.313751934587450 -0.121663385495759 0.180058974854263 0.197309149435870 -0.062612428105743 -0.209248325990267 -0.242598544217701 -0.162663082788046 0.030558058298699 0.337064879042534 0.756857379443458 0.032369869695826 -0.136242533634753 -0.189813307654061 -0.128342452362097 0.048170032241138 0.339724146155645 0.746319889381423 1.267957261918473 0.032369869695826 -0.136242533634753 -0.189813307654061 -0.128342452362097 0.048170032241138 0.339724146155645 0.746319889381423 1.267957261918473 0.016396632402065 -0.154611136949427 -0.222133648853789 -0.186170903311022 -0.046722900321124 0.196210360115902 0.542628878000059 0.992532653331345 -0.107467752520958 -0.216863867930072 -0.255048285734294 -0.222021005933624 -0.117782028528062 0.057668646482391 0.304331019097737 0.622205089317974 -0.272218802456814 -0.289103885496034 -0.276313335285619 -0.233847151825567 -0.161705335115879 -0.059887885156555 0.071605198052406 0.232773914511003 -0.410852034789074 -0.337434348566662 -0.273684914497808 -0.219603732582513 -0.175190802820778 -0.140446125212601 -0.115369699757983 -0.099961526456924 -0.456362966901311 -0.327958416061301 -0.234919140360905 -0.177245139800126 -0.154936414378962 -0.167992964097413 -0.216414788955480 -0.300201888953163 -0.341747116177096 -0.226779246899298 -0.147772129864955 -0.104725765074067 -0.097640152526635 -0.126515292222658 -0.191351184162136 -0.292147828345070 0.000000000000000 0.000000000000000 0.000000000000000 0.000000000000000 0.000000000000000 0.000000000000000 0.000000000000000 0.000000000000000 SCALARS E_mag double 1 
LOOKUP_TABLE default
0.000000000000000 0.076915808490299 0.170088306591216 0.269095990960470 0.363517358255777 0.442930905134854 0.496915128255417 0.515048524275184 0.424209713779263 0.256438003888009 0.159572263819491 0.185014627011476 0.267743060136857 0.347597119760584 0.409838954547695 0.451436317294487 0.849843871230608 0.516945022186119 0.255698600358868 0.128099380273867 0.210628116834242 0.310693314594869 0.377824068147545 0.418525077457802 1.271612789947733 0.787045909277033 0.391204354188209 0.111475079569757 0.196404598425499 0.343761101255846 0.427878705716537 0.458155318782866 1.684226787524333 1.058855825400036 0.539288581090838 0.136565605308707 0.212835933534883 0.423013868988940 0.543245529674234 0.580202030646028 2.082396181554104 1.326836895817794 0.691718243588022 0.184597170748745 0.241365672258776 0.519015237468837 0.688064179258224 0.751209093124861 2.460831289630743 1.585834559275324 0.844162222349380 0.245172169845854 0.272315907934233 0.614291264789367 0.835723458644193 0.934149617449204 2.814242429347944 1.830806284703692 0.993334227443988 0.316839170386330 0.305005157671518 0.699312548108659 0.968050029482101 1.100206672093921 2.814242429347944 1.830423651453943 0.990173356891271 0.293147102482186 0.261096884735679 0.672932290286363 0.943068724427626 1.072586480424856 2.929023044989340 1.920690219195208 1.064028721066009 0.383221361505356 0.322124414520740 0.709601038882041 0.987383652479022 1.128313574292644 2.816460389559981 1.856385465581189 1.055061875495085 0.469377840488723 0.438840386052497 0.763520255086483 1.031417026577770 1.191366521032698 2.541333822603483 1.682200475011904 0.982584084457679 0.522839189466377 0.538558921397681 0.814763331551440 1.067767557884658 1.244559699326563 2.168422703663461 1.443877591402559 0.870262341543872 0.539963963770115 0.600332549150823 0.848101950388439 1.090816972491039 1.283260060307719 1.762506392283526 1.186957683822988 0.740233063978938 0.518039673386345 0.613650383562700 0.852084504370816 1.097787349323721 1.314231447360326 1.388364248007292 0.956985597558522 0.613624916867172 0.454460606739588 0.570741446095304 0.819014384435996 1.090924115578306 1.356753909939486 1.110775630378374 0.803463757572334 0.525824428253735 0.362815130708745 0.469797976218985 0.747750090302677 1.081415502689002 1.443392117725820 1.110775630378374 0.832595984498855 0.707945239506017 0.841402795519001 1.165237143213601 1.576772727745931 2.029270657626286 2.502999663971417 0.605346796217228 0.575922360974847 0.553534348816949 0.603159535783031 0.777076760816778 1.073613956034108 1.470327571796950 1.951446031908126 0.061606568889367 0.202991432353311 0.386229210479359 0.514631397046502 0.636549506053951 0.818391734106436 1.115125062734801 1.549094716276211 0.854642938228564 0.268657012162278 0.172642299019485 0.480674143477872 0.681398910917407 0.826542801236508 1.005584566313692 1.321684444245088 1.738320785087520 0.817935975029450 0.099723643061674 0.425457157169951 0.770269650702237 0.967598314041427 1.086906478144589 1.259524759824507 2.677198582753389 1.422315827214561 0.431562039951766 0.346655727651742 0.844049475816543 1.129662092332708 1.245293410132422 1.304924722426958 3.635834804513331 2.058583668104257 0.818104106344961 0.360938072922339 0.921025941106815 1.288495955155851 1.417950184161481 1.396412019559439 4.578787923654497 2.703323501574721 1.252116877311196 0.600232665955864 1.064204860582484 1.470717240225933 1.600773911899584 1.508746353352762 4.578787923654497 2.696974846917594 1.192142403543951 0.122070255653138 0.708627243173234 1.083894560375062 1.085553602684369 0.725444463791404 4.537674226984246 2.692622178344212 1.223041154187666 0.244812696472043 0.695103590689024 1.056639574606889 1.060197246030211 0.697537436376209 4.290183658841506 2.601939945626302 1.292756389880350 0.562803836761744 0.761822225197932 1.012022445729240 0.963550241769777 0.573179463026365 3.837542569339405 2.406478759478030 1.357444217428207 0.858619204791569 0.905795764557604 0.989035318670773 0.836347420113890 0.390129017667217 3.180977308591075 2.091385691862333 1.384811147446600 1.113797762873825 1.089469847825183 1.011861615898794 0.720954998902422 0.185355181796755 2.321714226709644 1.653001124030128 1.363564447702153 1.312028115883911 1.262055538486996 1.060441822944856 0.633931512334133 0.067603763779648 1.260979673808242 1.137377758330753 1.325431727996605 1.451210102961002 1.383439628818566 1.085178227897783 0.545725287446448 0.240827323603751 0.000000000000000 0.874767626933685 1.387285940267025 1.567013028782926 1.443406981264292 1.045925886494031 0.404027833255046 0.452829089669755 0.515048524275184 0.559260161763365 0.598620866634063 0.612483198837983 0.580199718325832 0.481122985048313 0.294605558956134 0.000000000000000 0.451040499631665 0.490759666066272 0.531815655523427 0.551804370578906 0.529321105216322 0.443440745068877 0.273611153710039 0.027616703677496 0.402371008003236 0.424984777521043 0.463798977310016 0.488597572893864 0.475082276951277 0.401883886029869 0.248816815663252 0.026599160088279 0.373834411525027 0.361946419469456 0.396557387696698 0.428585833010780 0.425949139740966 0.366291729819161 0.230309495650439 0.001883305569703 0.364495634471174 0.301801676601458 0.334806944642267 0.381428991144040 0.394232531558356 0.350204968570113 0.233107817688149 0.041594923540877 0.364821289877754 0.245085368763042 0.288750389991742 0.361110089500711 0.393421949504706 0.365376924482311 0.266307137035948 0.098899590906108 0.361315956262138 0.195657075433595 0.275808992970251 0.380394589052487 0.430351861957167 0.413445118244632 0.324978374459679 0.165094760188635 0.344518873129263 0.170424628469035 0.311062980457521 0.441098080054963 0.500685297343994 0.486171995666959 0.397758627992089 0.235244495051105 0.242240150702680 0.139808398814696 0.310984035632153 0.441140737650890 0.500970995182561 0.487036168031954 0.398390182779227 0.235244495051105 0.177118810144058 0.191024158086850 0.450935292023095 0.609620175397053 0.660241433023765 0.597283341497652 0.416520560623766 0.136875921538536 0.139257236195493 0.312146966736200 0.611676803178389 0.785375634679015 0.820782561170896 0.707187788468191 0.433897249341482 0.018504839987392 0.096950187844280 0.356298657944788 0.677554587745964 0.855902301316800 0.880244551741155 0.740587204706190 0.435755717006910 0.227874554904669 0.211431390738873 0.339435664946589 0.633903804483798 0.800265315682571 0.820745980870828 0.694114981652537 0.465583532488487 0.488209988591283 0.512484316068161 0.353467806365821 0.486124249327926 0.614322560597260 0.653906872501061 0.616767767527098 0.599411517362571 0.796487906425222 0.975079911753840 0.553009655932501 0.292237429509424 0.304511253634115 0.465938168258059 0.653036948336989 0.871852173670786 1.149685073784475 1.619254578099872 0.957417280878502 0.402469058982376 0.212291642859623 0.587271432219339 0.951600840883782 1.270658367245869 1.544778256047031 2.608373420548790 2.344792802149771 1.869233168727223 1.309115111413170 0.911217258178132 0.969486015114182 1.273559312321049 1.544778256047031 2.161244540043525 2.010899933018128 1.666195914382774 1.253850926958378 1.019658977790993 1.131365074392408 1.377315941649246 1.558615508211526 1.793081179893509 1.737390290249021 1.503865167159588 1.198338480639462 1.027239920538958 1.104132739642659 1.260577887182071 1.331775193382005 1.505001116347056 1.518820433669887 1.362313655973449 1.114474039908569 0.937342599933900 0.930894844656604 0.977148543747027 0.925532529380107 1.302712364361267 1.350819434633520 1.231965130793733 1.003111684505449 0.780823819211878 0.658929164625403 0.580819291216205 0.401162734027471 1.198010885961180 1.230214173062213 1.110909926789016 0.879262720475259 0.603530025885350 0.346895048771288 0.126268654744148 0.180058974854263 1.204672343943797 1.155118378488124 1.001562528396753 0.762571023436271 0.469409464745626 0.190472128726393 0.337809736329268 0.756857379443458 1.328388171664564 1.124984578897353 0.907816036679758 0.668482197716406 0.439155149147793 0.418292638629420 0.752162502085837 1.267957261918473 0.120703131312591 0.148433256916986 0.236063807034852 0.199367662801953 0.129400362913745 0.346363813117024 0.746568909087851 1.267957261918473 0.171674184957505 0.215870208701764 0.331382306589019 0.266886209374014 0.078399460770118 0.205945049541345 0.553468604526309 0.992532653331345 0.209807481839176 0.346864000789364 0.460602987512427 0.354304614216497 0.135127002702364 0.140653721378322 0.358579297619897 0.622205089317974 0.308050989402481 0.509138432411446 0.618414140743338 0.469583412302757 0.207437238321570 0.142825870792755 0.233853351146604 0.232773914511003 0.415638113477237 0.684719742400743 0.803104592402212 0.624425481072864 0.308596278874844 0.155478217565680 0.237815824099901 0.099961526456924 0.460788680115571 0.865381101470004 1.016406593749614 0.827283887798904 0.465147799878285 0.178593984883970 0.260859556269676 0.300201888953163 0.415098901713597 1.058752250848984 1.263483765959081 1.082905817729913 0.690483108736665 0.282216152922424 0.194649839687256 0.292147828345070 0.452829089669755 1.295851979431989 1.552812152645421 1.393804687296323 0.988924661370962 0.508267152855609 0.121927239736531 0.000000000000000 SCALARS E_x double 1 
LOOKUP_TABLE default