# vtk DataFile Version 3.0
# File generated by fem_2d on: 1651079199.9925928s

ASCII
DATASET UNSTRUCTURED_GRID

POINTS 256 double
0.0000000000 0.0000000000 0.0
0.0000000000 0.0714285714 0.0
0.0000000000 0.1428571429 0.0
0.0000000000 0.2142857143 0.0
0.0000000000 0.2857142857 0.0
0.0000000000 0.3571428571 0.0
0.0000000000 0.4285714286 0.0
0.0000000000 0.5000000000 0.0
0.1428571429 0.0000000000 0.0
0.1428571429 0.0714285714 0.0
0.1428571429 0.1428571429 0.0
0.1428571429 0.2142857143 0.0
0.1428571429 0.2857142857 0.0
0.1428571429 0.3571428571 0.0
0.1428571429 0.4285714286 0.0
0.1428571429 0.5000000000 0.0
0.2857142857 0.0000000000 0.0
0.2857142857 0.0714285714 0.0
0.2857142857 0.1428571429 0.0
0.2857142857 0.2142857143 0.0
0.2857142857 0.2857142857 0.0
0.2857142857 0.3571428571 0.0
0.2857142857 0.4285714286 0.0
0.2857142857 0.5000000000 0.0
0.4285714286 0.0000000000 0.0
0.4285714286 0.0714285714 0.0
0.4285714286 0.1428571429 0.0
0.4285714286 0.2142857143 0.0
0.4285714286 0.2857142857 0.0
0.4285714286 0.3571428571 0.0
0.4285714286 0.4285714286 0.0
0.4285714286 0.5000000000 0.0
0.5714285714 0.0000000000 0.0
0.5714285714 0.0714285714 0.0
0.5714285714 0.1428571429 0.0
0.5714285714 0.2142857143 0.0
0.5714285714 0.2857142857 0.0
0.5714285714 0.3571428571 0.0
0.5714285714 0.4285714286 0.0
0.5714285714 0.5000000000 0.0
0.7142857143 0.0000000000 0.0
0.7142857143 0.0714285714 0.0
0.7142857143 0.1428571429 0.0
0.7142857143 0.2142857143 0.0
0.7142857143 0.2857142857 0.0
0.7142857143 0.3571428571 0.0
0.7142857143 0.4285714286 0.0
0.7142857143 0.5000000000 0.0
0.8571428571 0.0000000000 0.0
0.8571428571 0.0714285714 0.0
0.8571428571 0.1428571429 0.0
0.8571428571 0.2142857143 0.0
0.8571428571 0.2857142857 0.0
0.8571428571 0.3571428571 0.0
0.8571428571 0.4285714286 0.0
0.8571428571 0.5000000000 0.0
1.0000000000 0.0000000000 0.0
1.0000000000 0.0714285714 0.0
1.0000000000 0.1428571429 0.0
1.0000000000 0.2142857143 0.0
1.0000000000 0.2857142857 0.0
1.0000000000 0.3571428571 0.0
1.0000000000 0.4285714286 0.0
1.0000000000 0.5000000000 0.0
1.0000000000 0.0000000000 0.0
1.0000000000 0.0714285714 0.0
1.0000000000 0.1428571429 0.0
1.0000000000 0.2142857143 0.0
1.0000000000 0.2857142857 0.0
1.0000000000 0.3571428571 0.0
1.0000000000 0.4285714286 0.0
1.0000000000 0.5000000000 0.0
1.1428571429 0.0000000000 0.0
1.1428571429 0.0714285714 0.0
1.1428571429 0.1428571429 0.0
1.1428571429 0.2142857143 0.0
1.1428571429 0.2857142857 0.0
1.1428571429 0.3571428571 0.0
1.1428571429 0.4285714286 0.0
1.1428571429 0.5000000000 0.0
1.2857142857 0.0000000000 0.0
1.2857142857 0.0714285714 0.0
1.2857142857 0.1428571429 0.0
1.2857142857 0.2142857143 0.0
1.2857142857 0.2857142857 0.0
1.2857142857 0.3571428571 0.0
1.2857142857 0.4285714286 0.0
1.2857142857 0.5000000000 0.0
1.4285714286 0.0000000000 0.0
1.4285714286 0.0714285714 0.0
1.4285714286 0.1428571429 0.0
1.4285714286 0.2142857143 0.0
1.4285714286 0.2857142857 0.0
1.4285714286 0.3571428571 0.0
1.4285714286 0.4285714286 0.0
1.4285714286 0.5000000000 0.0
1.5714285714 0.0000000000 0.0
1.5714285714 0.0714285714 0.0
1.5714285714 0.1428571429 0.0
1.5714285714 0.2142857143 0.0
1.5714285714 0.2857142857 0.0
1.5714285714 0.3571428571 0.0
1.5714285714 0.4285714286 0.0
1.5714285714 0.5000000000 0.0
1.7142857143 0.0000000000 0.0
1.7142857143 0.0714285714 0.0
1.7142857143 0.1428571429 0.0
1.7142857143 0.2142857143 0.0
1.7142857143 0.2857142857 0.0
1.7142857143 0.3571428571 0.0
1.7142857143 0.4285714286 0.0
1.7142857143 0.5000000000 0.0
1.8571428571 0.0000000000 0.0
1.8571428571 0.0714285714 0.0
1.8571428571 0.1428571429 0.0
1.8571428571 0.2142857143 0.0
1.8571428571 0.2857142857 0.0
1.8571428571 0.3571428571 0.0
1.8571428571 0.4285714286 0.0
1.8571428571 0.5000000000 0.0
2.0000000000 0.0000000000 0.0
2.0000000000 0.0714285714 0.0
2.0000000000 0.1428571429 0.0
2.0000000000 0.2142857143 0.0
2.0000000000 0.2857142857 0.0
2.0000000000 0.3571428571 0.0
2.0000000000 0.4285714286 0.0
2.0000000000 0.5000000000 0.0
0.0000000000 0.5000000000 0.0
0.0000000000 0.5714285714 0.0
0.0000000000 0.6428571429 0.0
0.0000000000 0.7142857143 0.0
0.0000000000 0.7857142857 0.0
0.0000000000 0.8571428571 0.0
0.0000000000 0.9285714286 0.0
0.0000000000 1.0000000000 0.0
0.1428571429 0.5000000000 0.0
0.1428571429 0.5714285714 0.0
0.1428571429 0.6428571429 0.0
0.1428571429 0.7142857143 0.0
0.1428571429 0.7857142857 0.0
0.1428571429 0.8571428571 0.0
0.1428571429 0.9285714286 0.0
0.1428571429 1.0000000000 0.0
0.2857142857 0.5000000000 0.0
0.2857142857 0.5714285714 0.0
0.2857142857 0.6428571429 0.0
0.2857142857 0.7142857143 0.0
0.2857142857 0.7857142857 0.0
0.2857142857 0.8571428571 0.0
0.2857142857 0.9285714286 0.0
0.2857142857 1.0000000000 0.0
0.4285714286 0.5000000000 0.0
0.4285714286 0.5714285714 0.0
0.4285714286 0.6428571429 0.0
0.4285714286 0.7142857143 0.0
0.4285714286 0.7857142857 0.0
0.4285714286 0.8571428571 0.0
0.4285714286 0.9285714286 0.0
0.4285714286 1.0000000000 0.0
0.5714285714 0.5000000000 0.0
0.5714285714 0.5714285714 0.0
0.5714285714 0.6428571429 0.0
0.5714285714 0.7142857143 0.0
0.5714285714 0.7857142857 0.0
0.5714285714 0.8571428571 0.0
0.5714285714 0.9285714286 0.0
0.5714285714 1.0000000000 0.0
0.7142857143 0.5000000000 0.0
0.7142857143 0.5714285714 0.0
0.7142857143 0.6428571429 0.0
0.7142857143 0.7142857143 0.0
0.7142857143 0.7857142857 0.0
0.7142857143 0.8571428571 0.0
0.7142857143 0.9285714286 0.0
0.7142857143 1.0000000000 0.0
0.8571428571 0.5000000000 0.0
0.8571428571 0.5714285714 0.0
0.8571428571 0.6428571429 0.0
0.8571428571 0.7142857143 0.0
0.8571428571 0.7857142857 0.0
0.8571428571 0.8571428571 0.0
0.8571428571 0.9285714286 0.0
0.8571428571 1.0000000000 0.0
1.0000000000 0.5000000000 0.0
1.0000000000 0.5714285714 0.0
1.0000000000 0.6428571429 0.0
1.0000000000 0.7142857143 0.0
1.0000000000 0.7857142857 0.0
1.0000000000 0.8571428571 0.0
1.0000000000 0.9285714286 0.0
1.0000000000 1.0000000000 0.0
1.0000000000 0.5000000000 0.0
1.0000000000 0.5714285714 0.0
1.0000000000 0.6428571429 0.0
1.0000000000 0.7142857143 0.0
1.0000000000 0.7857142857 0.0
1.0000000000 0.8571428571 0.0
1.0000000000 0.9285714286 0.0
1.0000000000 1.0000000000 0.0
1.1428571429 0.5000000000 0.0
1.1428571429 0.5714285714 0.0
1.1428571429 0.6428571429 0.0
1.1428571429 0.7142857143 0.0
1.1428571429 0.7857142857 0.0
1.1428571429 0.8571428571 0.0
1.1428571429 0.9285714286 0.0
1.1428571429 1.0000000000 0.0
1.2857142857 0.5000000000 0.0
1.2857142857 0.5714285714 0.0
1.2857142857 0.6428571429 0.0
1.2857142857 0.7142857143 0.0
1.2857142857 0.7857142857 0.0
1.2857142857 0.8571428571 0.0
1.2857142857 0.9285714286 0.0
1.2857142857 1.0000000000 0.0
1.4285714286 0.5000000000 0.0
1.4285714286 0.5714285714 0.0
1.4285714286 0.6428571429 0.0
1.4285714286 0.7142857143 0.0
1.4285714286 0.7857142857 0.0
1.4285714286 0.8571428571 0.0
1.4285714286 0.9285714286 0.0
1.4285714286 1.0000000000 0.0
1.5714285714 0.5000000000 0.0
1.5714285714 0.5714285714 0.0
1.5714285714 0.6428571429 0.0
1.5714285714 0.7142857143 0.0
1.5714285714 0.7857142857 0.0
1.5714285714 0.8571428571 0.0
1.5714285714 0.9285714286 0.0
1.5714285714 1.0000000000 0.0
1.7142857143 0.5000000000 0.0
1.7142857143 0.5714285714 0.0
1.7142857143 0.6428571429 0.0
1.7142857143 0.7142857143 0.0
1.7142857143 0.7857142857 0.0
1.7142857143 0.8571428571 0.0
1.7142857143 0.9285714286 0.0
1.7142857143 1.0000000000 0.0
1.8571428571 0.5000000000 0.0
1.8571428571 0.5714285714 0.0
1.8571428571 0.6428571429 0.0
1.8571428571 0.7142857143 0.0
1.8571428571 0.7857142857 0.0
1.8571428571 0.8571428571 0.0
1.8571428571 0.9285714286 0.0
1.8571428571 1.0000000000 0.0
2.0000000000 0.5000000000 0.0
2.0000000000 0.5714285714 0.0
2.0000000000 0.6428571429 0.0
2.0000000000 0.7142857143 0.0
2.0000000000 0.7857142857 0.0
2.0000000000 0.8571428571 0.0
2.0000000000 0.9285714286 0.0
2.0000000000 1.0000000000 0.0

CELLS 196 980
4	0	1	9	8
4	1	2	10	9
4	2	3	11	10
4	3	4	12	11
4	4	5	13	12
4	5	6	14	13
4	6	7	15	14
4	8	9	17	16
4	9	10	18	17
4	10	11	19	18
4	11	12	20	19
4	12	13	21	20
4	13	14	22	21
4	14	15	23	22
4	16	17	25	24
4	17	18	26	25
4	18	19	27	26
4	19	20	28	27
4	20	21	29	28
4	21	22	30	29
4	22	23	31	30
4	24	25	33	32
4	25	26	34	33
4	26	27	35	34
4	27	28	36	35
4	28	29	37	36
4	29	30	38	37
4	30	31	39	38
4	32	33	41	40
4	33	34	42	41
4	34	35	43	42
4	35	36	44	43
4	36	37	45	44
4	37	38	46	45
4	38	39	47	46
4	40	41	49	48
4	41	42	50	49
4	42	43	51	50
4	43	44	52	51
4	44	45	53	52
4	45	46	54	53
4	46	47	55	54
4	48	49	57	56
4	49	50	58	57
4	50	51	59	58
4	51	52	60	59
4	52	53	61	60
4	53	54	62	61
4	54	55	63	62
4	64	65	73	72
4	65	66	74	73
4	66	67	75	74
4	67	68	76	75
4	68	69	77	76
4	69	70	78	77
4	70	71	79	78
4	72	73	81	80
4	73	74	82	81
4	74	75	83	82
4	75	76	84	83
4	76	77	85	84
4	77	78	86	85
4	78	79	87	86
4	80	81	89	88
4	81	82	90	89
4	82	83	91	90
4	83	84	92	91
4	84	85	93	92
4	85	86	94	93
4	86	87	95	94
4	88	89	97	96
4	89	90	98	97
4	90	91	99	98
4	91	92	100	99
4	92	93	101	100
4	93	94	102	101
4	94	95	103	102
4	96	97	105	104
4	97	98	106	105
4	98	99	107	106
4	99	100	108	107
4	100	101	109	108
4	101	102	110	109
4	102	103	111	110
4	104	105	113	112
4	105	106	114	113
4	106	107	115	114
4	107	108	116	115
4	108	109	117	116
4	109	110	118	117
4	110	111	119	118
4	112	113	121	120
4	113	114	122	121
4	114	115	123	122
4	115	116	124	123
4	116	117	125	124
4	117	118	126	125
4	118	119	127	126
4	128	129	137	136
4	129	130	138	137
4	130	131	139	138
4	131	132	140	139
4	132	133	141	140
4	133	134	142	141
4	134	135	143	142
4	136	137	145	144
4	137	138	146	145
4	138	139	147	146
4	139	140	148	147
4	140	141	149	148
4	141	142	150	149
4	142	143	151	150
4	144	145	153	152
4	145	146	154	153
4	146	147	155	154
4	147	148	156	155
4	148	149	157	156
4	149	150	158	157
4	150	151	159	158
4	152	153	161	160
4	153	154	162	161
4	154	155	163	162
4	155	156	164	163
4	156	157	165	164
4	157	158	166	165
4	158	159	167	166
4	160	161	169	168
4	161	162	170	169
4	162	163	171	170
4	163	164	172	171
4	164	165	173	172
4	165	166	174	173
4	166	167	175	174
4	168	169	177	176
4	169	170	178	177
4	170	171	179	178
4	171	172	180	179
4	172	173	181	180
4	173	174	182	181
4	174	175	183	182
4	176	177	185	184
4	177	178	186	185
4	178	179	187	186
4	179	180	188	187
4	180	181	189	188
4	181	182	190	189
4	182	183	191	190
4	192	193	201	200
4	193	194	202	201
4	194	195	203	202
4	195	196	204	203
4	196	197	205	204
4	197	198	206	205
4	198	199	207	206
4	200	201	209	208
4	201	202	210	209
4	202	203	211	210
4	203	204	212	211
4	204	205	213	212
4	205	206	214	213
4	206	207	215	214
4	208	209	217	216
4	209	210	218	217
4	210	211	219	218
4	211	212	220	219
4	212	213	221	220
4	213	214	222	221
4	214	215	223	222
4	216	217	225	224
4	217	218	226	225
4	218	219	227	226
4	219	220	228	227
4	220	221	229	228
4	221	222	230	229
4	222	223	231	230
4	224	225	233	232
4	225	226	234	233
4	226	227	235	234
4	227	228	236	235
4	228	229	237	236
4	229	230	238	237
4	230	231	239	238
4	232	233	241	240
4	233	234	242	241
4	234	235	243	242
4	235	236	244	243
4	236	237	245	244
4	237	238	246	245
4	238	239	247	246
4	240	241	249	248
4	241	242	250	249
4	242	243	251	250
4	243	244	252	251
4	244	245	253	252
4	245	246	254	253
4	246	247	255	254

CELL_TYPES 196
 9 9 9 9 9 9 9 9 9 9 9 9 9 9 9 9 9 9 9 9 9 9 9 9 9 9 9 9 9 9 9 9 9 9 9 9 9 9 9 9 9 9 9 9 9 9 9 9 9 9 9 9 9 9 9 9 9 9 9 9 9 9 9 9 9 9 9 9 9 9 9 9 9 9 9 9 9 9 9 9 9 9 9 9 9 9 9 9 9 9 9 9 9 9 9 9 9 9 9 9 9 9 9 9 9 9 9 9 9 9 9 9 9 9 9 9 9 9 9 9 9 9 9 9 9 9 9 9 9 9 9 9 9 9 9 9 9 9 9 9 9 9 9 9 9 9 9 9 9 9 9 9 9 9 9 9 9 9 9 9 9 9 9 9 9 9 9 9 9 9 9 9 9 9 9 9 9 9 9 9 9 9 9 9 9 9 9 9 9 9 9 9 9 9 9 9
POINT_DATA 256
SCALARS E_y double 1 
LOOKUP_TABLE default
0.000000000000000 0.000000000000000 0.000000000000000 0.000000000000000 0.000000000000000 0.000000000000000 0.000000000000000 0.000000000000000 -0.080783362499255 -0.080127846484208 -0.084053132644556 -0.092559220980299 -0.105646111491437 -0.123313804177970 -0.145562299039898 -0.172391596077221 -0.155195236725438 -0.155923766569019 -0.165896857038432 -0.185114508133679 -0.213576719854759 -0.251283492201673 -0.298234825174419 -0.354430718772999 -0.228514170525643 -0.228889499931867 -0.244382261686642 -0.274992455789968 -0.320720082241846 -0.381565141042274 -0.457527632191254 -0.548607555688785 -0.306018711746966 -0.300526786250190 -0.318360435094200 -0.359519658278995 -0.424004455804576 -0.511814827670942 -0.622950773878094 -0.757412294426031 -0.392987408236502 -0.372337365201425 -0.386682465766120 -0.436022709930588 -0.520358097694829 -0.639688629058842 -0.794014304022628 -0.983335122586187 -0.494698807841348 -0.445822976463008 -0.448199442207417 -0.501828205074575 -0.606709265064484 -0.762842622177141 -0.970228276412548 -1.228866227770705 -0.616431458408598 -0.522485359712375 -0.501762452923104 -0.554262738040785 -0.679986215065419 -0.878932883997006 -1.151102744835545 -1.496495797581037 -0.616431458408598 -0.522485359712375 -0.501762452923104 -0.554262738040785 -0.679986215065419 -0.878932883997006 -1.151102744835545 -1.496495797581037 -0.497641589370118 -0.414391269761988 -0.391583011683814 -0.429216815135597 -0.527292680117336 -0.685810606629031 -0.904770594670683 -1.184172644242292 -0.386142801088176 -0.315608296607701 -0.291917365704213 -0.315070008377715 -0.385066224628204 -0.501906014455683 -0.665589377860149 -0.876116314841604 -0.283706091533444 -0.227240435027292 -0.204157055992830 -0.214455954430057 -0.258137130338973 -0.335200583719579 -0.445646314571875 -0.589474322895860 -0.192102458676590 -0.150391679798539 -0.129693623558189 -0.130008289955539 -0.151335678990590 -0.193675790663340 -0.257028624973791 -0.341394181921942 -0.113102900488285 -0.086166025699221 -0.069918609408820 -0.064360651617080 -0.069492152324002 -0.085313111529585 -0.111823529233830 -0.149023405436737 -0.048478414939198 -0.035667467507115 -0.026223554553248 -0.020146676077594 -0.017436832080156 -0.018094022560932 -0.022118247519923 -0.029509506957128 0.000000000000000 0.000000000000000 0.000000000000000 0.000000000000000 0.000000000000000 0.000000000000000 0.000000000000000 0.000000000000000 0.000000000000000 0.000000000000000 0.000000000000000 0.000000000000000 0.000000000000000 0.000000000000000 0.000000000000000 0.000000000000000 -0.039638425861164 -0.219729750706145 -0.380487308967137 -0.521911100644139 -0.644001125737153 -0.746757384246177 -0.830179876171212 -0.894268601512257 -0.107661938337903 -0.460635715344832 -0.774137141794253 -1.048166217686164 -1.282722943020566 -1.477807317797459 -1.633419342016842 -1.749559015678716 -0.182346182609651 -0.704974445584261 -1.166800344234303 -1.567823878559776 -1.908045048560682 -2.187463854237020 -2.406080295588790 -2.563894372615991 -0.241966803855845 -0.935002493092629 -1.544327762040240 -2.069942610698678 -2.511847039067943 -2.870041047148036 -3.144524634938955 -3.335297802440701 -0.264799447255917 -1.132976409538134 -1.892570240965019 -2.543580941536572 -3.086008511252793 -3.519852950113681 -3.845114258119237 -4.061792435269462 -0.229119757989303 -1.281152746588975 -2.197378626761594 -2.977797398507161 -3.622409061825673 -4.131213616717131 -4.504211063181537 -4.741401401218889 -0.113203381235436 -1.361788055913350 -2.444603765182920 -3.361650509044145 -4.112928287497025 -4.698437100541561 -5.118176948177753 -5.372147830405600 -0.113203381235436 -1.361788055913350 -2.444603765182920 -3.361650509044145 -4.112928287497025 -4.698437100541561 -5.118176948177753 -5.372147830405600 0.008339842291226 -1.413012627368319 -2.638118876545026 -3.666978905238894 -4.499592713449925 -5.135960301178117 -5.576081668423472 -5.819956815185988 0.193435769828539 -1.372248232150972 -2.713570314984485 -3.830530478672002 -4.723128723213523 -5.391365048609046 -5.835239454858572 -6.054751941962102 0.382878516585794 -1.245535105804751 -2.633247440120097 -3.780258486360244 -4.686568244525191 -5.352176714614940 -5.777083896629491 -5.961289790568841 0.517462197772278 -1.038913483873101 -2.359439611570657 -3.444116185320392 -4.292943205122303 -4.905920670976391 -5.283048582882659 -5.424326940841103 0.537980928597282 -0.758423601899463 -1.854436188954963 -2.750056832569218 -3.445285532742227 -3.940122289473992 -4.234567102764512 -4.328619972613787 0.385228824270093 -0.410105695427282 -1.080526531891812 -1.626033685123496 -2.046627155122336 -2.342306941888331 -2.513073045421481 -2.558925465721785 0.000000000000000 0.000000000000000 0.000000000000000 0.000000000000000 0.000000000000000 0.000000000000000 0.000000000000000 0.000000000000000 SCALARS E_x double 1 
LOOKUP_TABLE default
0.000000000000000 -0.016102552680369 -0.029924916101112 -0.043729561164612 -0.059778958773254 -0.080335579829420 -0.107661895235493 -0.144020375893857 0.000000000000000 -0.010587053790861 -0.020448938223884 -0.031232018902452 -0.044582661429944 -0.062147231409742 -0.085572094445226 -0.116503616139779 0.000000000000000 -0.008395730138746 -0.016431524603854 -0.025538723368428 -0.037148666405576 -0.052692693688402 -0.073602145190013 -0.101308360883514 0.000000000000000 -0.009528581724025 -0.017872675241020 -0.026649674562543 -0.037476973700151 -0.051971966665401 -0.071752047469852 -0.098434610125061 0.000000000000000 -0.013985608546697 -0.024772390135384 -0.034564872484795 -0.045567583313668 -0.059985050340739 -0.080021801284745 -0.107882363864422 0.000000000000000 -0.021766810606763 -0.037130669286944 -0.049284317135185 -0.061420495246128 -0.076731944714416 -0.098411406634691 -0.129651622101595 0.000000000000000 -0.032872187904223 -0.054947512695702 -0.070808008513712 -0.085035709497530 -0.102212649786430 -0.126920863519689 -0.163742384836581 0.000000000000000 -0.047301740439076 -0.078222920361657 -0.099135946620378 -0.116413226067875 -0.136427165556784 -0.165550171939741 -0.210154652069380 0.000000000000000 0.031866573233822 0.067822790280980 0.106076840687065 0.144836913997669 0.182311199758381 0.216707887514794 0.246235166812499 0.000000000000000 0.022562385945257 0.048548994872360 0.076632585566944 0.105485916814649 0.133781747401112 0.160192836111971 0.183391941732864 0.000000000000000 0.016137948266545 0.035020615757418 0.055698572870829 0.077222390004987 0.098642637558104 0.119009885928388 0.137374705514051 0.000000000000000 0.012593260197686 0.027237652936156 0.043274802598719 0.060046333568683 0.076893870229356 0.093159036964046 0.108183458156062 0.000000000000000 0.011928321738678 0.025200106408573 0.039361274750615 0.053957747505737 0.068535445414870 0.082640289218945 0.095818199658895 0.000000000000000 0.014143132889524 0.028907976174669 0.043957989326517 0.058956631816149 0.073567363114645 0.087453642693085 0.100278930022551 0.000000000000000 0.019237693650221 0.038361262234445 0.057064946326425 0.075042986499919 0.091989623328681 0.107599097386466 0.121565649247030 0.000000000000000 0.027212004020771 0.053559964587899 0.078682145750339 0.102216811557047 0.123802226056978 0.143076653299088 0.159678357332332 -0.144020375893857 -0.152424044592216 -0.144764340017758 -0.124883684511820 -0.096624500415739 -0.063829210070850 -0.030340235818492 0.000000000000000 -0.116503616139779 -0.125380484782997 -0.121004008706084 -0.106222146265624 -0.083882855818202 -0.056834095720401 -0.027923824328806 0.000000000000000 -0.101308360883514 -0.108793814879789 -0.105522680515290 -0.093557295410553 -0.074959997186117 -0.051793123462521 -0.026119011860303 0.000000000000000 -0.098434610125061 -0.102664034882594 -0.098320355445377 -0.086889131946608 -0.069855924519486 -0.048706293297211 -0.024925798412983 0.000000000000000 -0.107882363864422 -0.106991144791412 -0.099397033496345 -0.086217655873787 -0.068570637818307 -0.047573605224472 -0.024344183986847 0.000000000000000 -0.129651622101595 -0.121775144606241 -0.108752714668193 -0.091542867192093 -0.071104137082582 -0.048395059244301 -0.024374168581894 0.000000000000000 -0.163742384836581 -0.147016034327082 -0.126387398960922 -0.102864765901523 -0.077456422312309 -0.051170655356701 -0.025015752198124 0.000000000000000 -0.210154652069380 -0.182713813953936 -0.152301086374532 -0.120183352002079 -0.087627493507488 -0.055900393561671 -0.026268934835538 0.000000000000000 0.246235166812499 0.199680423549501 0.163080049335829 0.132737080914128 0.104954555027047 0.076035508417234 0.042282977827336 0.000000000000000 0.183391941732864 0.147717692197677 0.119564228316880 0.096314158841079 0.075350092520883 0.054054638106899 0.029810404349735 0.000000000000000 0.137374705514051 0.110917518012962 0.089752480994331 0.072070750082784 0.056063480902950 0.039921829079456 0.021836950236930 0.000000000000000 0.108183458156062 0.089279900995356 0.073644807368181 0.060006854639243 0.047094720173249 0.033637081334905 0.018362615488920 0.000000000000000 0.095818199658895 0.082804841144859 0.071241207438431 0.060122472510456 0.048443810331779 0.035200394873247 0.019387400105706 0.000000000000000 0.100278930022551 0.091492338461472 0.082541681205081 0.072417603696423 0.060110751378542 0.044611769694482 0.024911304087286 0.000000000000000 0.121565649247030 0.115342392945193 0.107546228668130 0.096892248197144 0.082095543313536 0.061871205798608 0.034934327433662 0.000000000000000 0.159678357332332 0.154355004596023 0.146254849827579 0.133546406012619 0.114398186136762 0.086978703185628 0.049456470144834 0.000000000000000 SCALARS E_mag double 1 
LOOKUP_TABLE default
0.000000000000000 0.016102552680369 0.029924916101112 0.043729561164612 0.059778958773254 0.080335579829420 0.107661895235493 0.144020375893857 0.080783362499255 0.080824238259123 0.086504844846099 0.097686480094243 0.114667844548671 0.138089002721936 0.168851906265590 0.208067188599492 0.155195236725438 0.156149637417550 0.166708614582562 0.186867887858945 0.216783391152623 0.256748735968082 0.307182822962789 0.368625173305960 0.228514170525643 0.229087749669710 0.245034941074430 0.276280755565217 0.322902299017734 0.385088356325766 0.463119736714655 0.557368480118221 0.306018711746966 0.300852034229933 0.319322780187052 0.361177401146494 0.426445990942795 0.515317983470611 0.628069387373856 0.765056852907468 0.392987408236502 0.372973065474077 0.388461086767598 0.438799210904823 0.523970444846711 0.644274268838075 0.800089694939484 0.991845505320847 0.494698807841348 0.447033228160890 0.451555056606040 0.506799093801526 0.612639538558224 0.769659854732245 0.978494667306393 1.239727298379516 0.616431458408598 0.524622155233970 0.507823182252756 0.563058716913953 0.689879186439571 0.889457916977050 1.162946425506009 1.511179886699166 0.616431458408598 0.523456234659056 0.506325478368320 0.564322141077787 0.695240234980228 0.897641569964668 1.171323967858189 1.516618419231707 0.497641589370118 0.415005042998871 0.394581119597076 0.436004160032699 0.537740503543810 0.698737249688733 0.918842518455877 1.198289387278520 0.386142801088176 0.316020616830402 0.294010530300729 0.319955373761686 0.392733108952506 0.511507592603675 0.676145378501509 0.886821068111660 0.283706091533444 0.227589115543339 0.205966000226081 0.218778575117548 0.265028942258542 0.343907107522941 0.455279303131125 0.599319312196876 0.192102458676590 0.150863985802205 0.132119193740564 0.135836171203244 0.160667128720954 0.205444443018751 0.269987280178361 0.354585835639305 0.113102900488285 0.087319025376659 0.075658991720603 0.077939709405446 0.091132012321287 0.112652047981834 0.141959998980696 0.179621377275729 0.048478414939198 0.040524771379379 0.046467851829270 0.060516912150351 0.077042150384180 0.093752250386794 0.109848908195461 0.125096035419612 0.000000000000000 0.027212004020771 0.053559964587899 0.078682145750339 0.102216811557047 0.123802226056978 0.143076653299088 0.159678357332332 0.144020375893857 0.152424044592216 0.144764340017758 0.124883684511820 0.096624500415739 0.063829210070850 0.030340235818492 0.000000000000000 0.123062168753829 0.252985037719237 0.399265027779789 0.532610872338195 0.649441131628524 0.748917021680338 0.830649364512364 0.894268601512257 0.147832597729928 0.473308943933393 0.781295942910564 1.052333306240498 1.284911339248543 1.478714643253972 1.633628155259112 1.749559015678716 0.207218490446160 0.712410607013407 1.170935495917769 1.570229739698193 1.909323376887061 2.188006036691908 2.406209401578999 2.563894372615991 0.264927421384024 0.941104015055301 1.547523184600506 2.071737409946161 2.512782815932408 2.870435308490447 3.144618867053995 3.335297802440701 0.294836039826569 1.139501965954334 1.895692293051299 2.545227711361367 3.086827551036005 3.520185630358610 3.845191511236587 4.061792435269462 0.281615752565526 1.289560419073777 2.201010359804055 2.979573544422085 3.623237075952134 4.131530513371367 4.504280529623459 4.741401401218889 0.238704803700172 1.373990919561645 2.449343420114331 3.363798178109860 4.113861650045078 4.698769630631592 5.118244360109776 5.372147830405600 0.271010632445140 1.376349875859031 2.450037279560840 3.364270095816678 4.114267195590745 4.699052307251502 5.118351602134430 5.372147830405600 0.183581473090267 1.420712920223691 2.640826918121708 3.668243545439738 4.500223574820985 5.136244748761344 5.576161352860566 5.819956815185988 0.237253465231242 1.376723612946194 2.715054209810485 3.831208417856259 4.723461447914607 5.391512852604571 5.835280314426532 6.054751941962102 0.397868846583321 1.248730795853851 2.634277061842839 3.780734723079938 4.686804862938090 5.352282413859260 5.777113079587708 5.961289790568841 0.526258732477845 1.042208169556528 2.360514899399277 3.444640911573608 4.293216529033356 4.906046952253176 5.283084156094936 5.424326940841103 0.547247058777716 0.763922252533139 1.856272261291960 2.751010158411955 3.445809876437495 3.940374838261589 4.234640376807310 4.328619972613787 0.403954767424980 0.426017075986653 1.085865450883711 1.628917939282699 2.048273026311700 2.343123952360446 2.513315845423579 2.558925465721785 0.159678357332332 0.154355004596023 0.146254849827579 0.133546406012619 0.114398186136762 0.086978703185628 0.049456470144834 0.000000000000000 
