# vtk DataFile Version 3.0
# File generated by fem_2d on: 1643403006.165076332s

ASCII
DATASET UNSTRUCTURED_GRID

POINTS 1344 double
0.0000000000 0.0000000000 0.0
0.0000000000 0.0714285714 0.0
0.0000000000 0.1428571429 0.0
0.0000000000 0.2142857143 0.0
0.0000000000 0.2857142857 0.0
0.0000000000 0.3571428571 0.0
0.0000000000 0.4285714286 0.0
0.0000000000 0.5000000000 0.0
0.0714285714 0.0000000000 0.0
0.0714285714 0.0714285714 0.0
0.0714285714 0.1428571429 0.0
0.0714285714 0.2142857143 0.0
0.0714285714 0.2857142857 0.0
0.0714285714 0.3571428571 0.0
0.0714285714 0.4285714286 0.0
0.0714285714 0.5000000000 0.0
0.1428571429 0.0000000000 0.0
0.1428571429 0.0714285714 0.0
0.1428571429 0.1428571429 0.0
0.1428571429 0.2142857143 0.0
0.1428571429 0.2857142857 0.0
0.1428571429 0.3571428571 0.0
0.1428571429 0.4285714286 0.0
0.1428571429 0.5000000000 0.0
0.2142857143 0.0000000000 0.0
0.2142857143 0.0714285714 0.0
0.2142857143 0.1428571429 0.0
0.2142857143 0.2142857143 0.0
0.2142857143 0.2857142857 0.0
0.2142857143 0.3571428571 0.0
0.2142857143 0.4285714286 0.0
0.2142857143 0.5000000000 0.0
0.2857142857 0.0000000000 0.0
0.2857142857 0.0714285714 0.0
0.2857142857 0.1428571429 0.0
0.2857142857 0.2142857143 0.0
0.2857142857 0.2857142857 0.0
0.2857142857 0.3571428571 0.0
0.2857142857 0.4285714286 0.0
0.2857142857 0.5000000000 0.0
0.3571428571 0.0000000000 0.0
0.3571428571 0.0714285714 0.0
0.3571428571 0.1428571429 0.0
0.3571428571 0.2142857143 0.0
0.3571428571 0.2857142857 0.0
0.3571428571 0.3571428571 0.0
0.3571428571 0.4285714286 0.0
0.3571428571 0.5000000000 0.0
0.4285714286 0.0000000000 0.0
0.4285714286 0.0714285714 0.0
0.4285714286 0.1428571429 0.0
0.4285714286 0.2142857143 0.0
0.4285714286 0.2857142857 0.0
0.4285714286 0.3571428571 0.0
0.4285714286 0.4285714286 0.0
0.4285714286 0.5000000000 0.0
0.5000000000 0.0000000000 0.0
0.5000000000 0.0714285714 0.0
0.5000000000 0.1428571429 0.0
0.5000000000 0.2142857143 0.0
0.5000000000 0.2857142857 0.0
0.5000000000 0.3571428571 0.0
0.5000000000 0.4285714286 0.0
0.5000000000 0.5000000000 0.0
0.5000000000 0.0000000000 0.0
0.5000000000 0.0714285714 0.0
0.5000000000 0.1428571429 0.0
0.5000000000 0.2142857143 0.0
0.5000000000 0.2857142857 0.0
0.5000000000 0.3571428571 0.0
0.5000000000 0.4285714286 0.0
0.5000000000 0.5000000000 0.0
0.5714285714 0.0000000000 0.0
0.5714285714 0.0714285714 0.0
0.5714285714 0.1428571429 0.0
0.5714285714 0.2142857143 0.0
0.5714285714 0.2857142857 0.0
0.5714285714 0.3571428571 0.0
0.5714285714 0.4285714286 0.0
0.5714285714 0.5000000000 0.0
0.6428571429 0.0000000000 0.0
0.6428571429 0.0714285714 0.0
0.6428571429 0.1428571429 0.0
0.6428571429 0.2142857143 0.0
0.6428571429 0.2857142857 0.0
0.6428571429 0.3571428571 0.0
0.6428571429 0.4285714286 0.0
0.6428571429 0.5000000000 0.0
0.7142857143 0.0000000000 0.0
0.7142857143 0.0714285714 0.0
0.7142857143 0.1428571429 0.0
0.7142857143 0.2142857143 0.0
0.7142857143 0.2857142857 0.0
0.7142857143 0.3571428571 0.0
0.7142857143 0.4285714286 0.0
0.7142857143 0.5000000000 0.0
0.7857142857 0.0000000000 0.0
0.7857142857 0.0714285714 0.0
0.7857142857 0.1428571429 0.0
0.7857142857 0.2142857143 0.0
0.7857142857 0.2857142857 0.0
0.7857142857 0.3571428571 0.0
0.7857142857 0.4285714286 0.0
0.7857142857 0.5000000000 0.0
0.8571428571 0.0000000000 0.0
0.8571428571 0.0714285714 0.0
0.8571428571 0.1428571429 0.0
0.8571428571 0.2142857143 0.0
0.8571428571 0.2857142857 0.0
0.8571428571 0.3571428571 0.0
0.8571428571 0.4285714286 0.0
0.8571428571 0.5000000000 0.0
0.9285714286 0.0000000000 0.0
0.9285714286 0.0714285714 0.0
0.9285714286 0.1428571429 0.0
0.9285714286 0.2142857143 0.0
0.9285714286 0.2857142857 0.0
0.9285714286 0.3571428571 0.0
0.9285714286 0.4285714286 0.0
0.9285714286 0.5000000000 0.0
1.0000000000 0.0000000000 0.0
1.0000000000 0.0714285714 0.0
1.0000000000 0.1428571429 0.0
1.0000000000 0.2142857143 0.0
1.0000000000 0.2857142857 0.0
1.0000000000 0.3571428571 0.0
1.0000000000 0.4285714286 0.0
1.0000000000 0.5000000000 0.0
0.0000000000 0.5000000000 0.0
0.0000000000 0.5714285714 0.0
0.0000000000 0.6428571429 0.0
0.0000000000 0.7142857143 0.0
0.0000000000 0.7857142857 0.0
0.0000000000 0.8571428571 0.0
0.0000000000 0.9285714286 0.0
0.0000000000 1.0000000000 0.0
0.0714285714 0.5000000000 0.0
0.0714285714 0.5714285714 0.0
0.0714285714 0.6428571429 0.0
0.0714285714 0.7142857143 0.0
0.0714285714 0.7857142857 0.0
0.0714285714 0.8571428571 0.0
0.0714285714 0.9285714286 0.0
0.0714285714 1.0000000000 0.0
0.1428571429 0.5000000000 0.0
0.1428571429 0.5714285714 0.0
0.1428571429 0.6428571429 0.0
0.1428571429 0.7142857143 0.0
0.1428571429 0.7857142857 0.0
0.1428571429 0.8571428571 0.0
0.1428571429 0.9285714286 0.0
0.1428571429 1.0000000000 0.0
0.2142857143 0.5000000000 0.0
0.2142857143 0.5714285714 0.0
0.2142857143 0.6428571429 0.0
0.2142857143 0.7142857143 0.0
0.2142857143 0.7857142857 0.0
0.2142857143 0.8571428571 0.0
0.2142857143 0.9285714286 0.0
0.2142857143 1.0000000000 0.0
0.2857142857 0.5000000000 0.0
0.2857142857 0.5714285714 0.0
0.2857142857 0.6428571429 0.0
0.2857142857 0.7142857143 0.0
0.2857142857 0.7857142857 0.0
0.2857142857 0.8571428571 0.0
0.2857142857 0.9285714286 0.0
0.2857142857 1.0000000000 0.0
0.3571428571 0.5000000000 0.0
0.3571428571 0.5714285714 0.0
0.3571428571 0.6428571429 0.0
0.3571428571 0.7142857143 0.0
0.3571428571 0.7857142857 0.0
0.3571428571 0.8571428571 0.0
0.3571428571 0.9285714286 0.0
0.3571428571 1.0000000000 0.0
0.4285714286 0.5000000000 0.0
0.4285714286 0.5714285714 0.0
0.4285714286 0.6428571429 0.0
0.4285714286 0.7142857143 0.0
0.4285714286 0.7857142857 0.0
0.4285714286 0.8571428571 0.0
0.4285714286 0.9285714286 0.0
0.4285714286 1.0000000000 0.0
0.5000000000 0.5000000000 0.0
0.5000000000 0.5714285714 0.0
0.5000000000 0.6428571429 0.0
0.5000000000 0.7142857143 0.0
0.5000000000 0.7857142857 0.0
0.5000000000 0.8571428571 0.0
0.5000000000 0.9285714286 0.0
0.5000000000 1.0000000000 0.0
1.0000000000 0.0000000000 0.0
1.0000000000 0.0714285714 0.0
1.0000000000 0.1428571429 0.0
1.0000000000 0.2142857143 0.0
1.0000000000 0.2857142857 0.0
1.0000000000 0.3571428571 0.0
1.0000000000 0.4285714286 0.0
1.0000000000 0.5000000000 0.0
1.0714285714 0.0000000000 0.0
1.0714285714 0.0714285714 0.0
1.0714285714 0.1428571429 0.0
1.0714285714 0.2142857143 0.0
1.0714285714 0.2857142857 0.0
1.0714285714 0.3571428571 0.0
1.0714285714 0.4285714286 0.0
1.0714285714 0.5000000000 0.0
1.1428571429 0.0000000000 0.0
1.1428571429 0.0714285714 0.0
1.1428571429 0.1428571429 0.0
1.1428571429 0.2142857143 0.0
1.1428571429 0.2857142857 0.0
1.1428571429 0.3571428571 0.0
1.1428571429 0.4285714286 0.0
1.1428571429 0.5000000000 0.0
1.2142857143 0.0000000000 0.0
1.2142857143 0.0714285714 0.0
1.2142857143 0.1428571429 0.0
1.2142857143 0.2142857143 0.0
1.2142857143 0.2857142857 0.0
1.2142857143 0.3571428571 0.0
1.2142857143 0.4285714286 0.0
1.2142857143 0.5000000000 0.0
1.2857142857 0.0000000000 0.0
1.2857142857 0.0714285714 0.0
1.2857142857 0.1428571429 0.0
1.2857142857 0.2142857143 0.0
1.2857142857 0.2857142857 0.0
1.2857142857 0.3571428571 0.0
1.2857142857 0.4285714286 0.0
1.2857142857 0.5000000000 0.0
1.3571428571 0.0000000000 0.0
1.3571428571 0.0714285714 0.0
1.3571428571 0.1428571429 0.0
1.3571428571 0.2142857143 0.0
1.3571428571 0.2857142857 0.0
1.3571428571 0.3571428571 0.0
1.3571428571 0.4285714286 0.0
1.3571428571 0.5000000000 0.0
1.4285714286 0.0000000000 0.0
1.4285714286 0.0714285714 0.0
1.4285714286 0.1428571429 0.0
1.4285714286 0.2142857143 0.0
1.4285714286 0.2857142857 0.0
1.4285714286 0.3571428571 0.0
1.4285714286 0.4285714286 0.0
1.4285714286 0.5000000000 0.0
1.5000000000 0.0000000000 0.0
1.5000000000 0.0714285714 0.0
1.5000000000 0.1428571429 0.0
1.5000000000 0.2142857143 0.0
1.5000000000 0.2857142857 0.0
1.5000000000 0.3571428571 0.0
1.5000000000 0.4285714286 0.0
1.5000000000 0.5000000000 0.0
1.5000000000 0.0000000000 0.0
1.5000000000 0.0714285714 0.0
1.5000000000 0.1428571429 0.0
1.5000000000 0.2142857143 0.0
1.5000000000 0.2857142857 0.0
1.5000000000 0.3571428571 0.0
1.5000000000 0.4285714286 0.0
1.5000000000 0.5000000000 0.0
1.5714285714 0.0000000000 0.0
1.5714285714 0.0714285714 0.0
1.5714285714 0.1428571429 0.0
1.5714285714 0.2142857143 0.0
1.5714285714 0.2857142857 0.0
1.5714285714 0.3571428571 0.0
1.5714285714 0.4285714286 0.0
1.5714285714 0.5000000000 0.0
1.6428571429 0.0000000000 0.0
1.6428571429 0.0714285714 0.0
1.6428571429 0.1428571429 0.0
1.6428571429 0.2142857143 0.0
1.6428571429 0.2857142857 0.0
1.6428571429 0.3571428571 0.0
1.6428571429 0.4285714286 0.0
1.6428571429 0.5000000000 0.0
1.7142857143 0.0000000000 0.0
1.7142857143 0.0714285714 0.0
1.7142857143 0.1428571429 0.0
1.7142857143 0.2142857143 0.0
1.7142857143 0.2857142857 0.0
1.7142857143 0.3571428571 0.0
1.7142857143 0.4285714286 0.0
1.7142857143 0.5000000000 0.0
1.7857142857 0.0000000000 0.0
1.7857142857 0.0714285714 0.0
1.7857142857 0.1428571429 0.0
1.7857142857 0.2142857143 0.0
1.7857142857 0.2857142857 0.0
1.7857142857 0.3571428571 0.0
1.7857142857 0.4285714286 0.0
1.7857142857 0.5000000000 0.0
1.8571428571 0.0000000000 0.0
1.8571428571 0.0714285714 0.0
1.8571428571 0.1428571429 0.0
1.8571428571 0.2142857143 0.0
1.8571428571 0.2857142857 0.0
1.8571428571 0.3571428571 0.0
1.8571428571 0.4285714286 0.0
1.8571428571 0.5000000000 0.0
1.9285714286 0.0000000000 0.0
1.9285714286 0.0714285714 0.0
1.9285714286 0.1428571429 0.0
1.9285714286 0.2142857143 0.0
1.9285714286 0.2857142857 0.0
1.9285714286 0.3571428571 0.0
1.9285714286 0.4285714286 0.0
1.9285714286 0.5000000000 0.0
2.0000000000 0.0000000000 0.0
2.0000000000 0.0714285714 0.0
2.0000000000 0.1428571429 0.0
2.0000000000 0.2142857143 0.0
2.0000000000 0.2857142857 0.0
2.0000000000 0.3571428571 0.0
2.0000000000 0.4285714286 0.0
2.0000000000 0.5000000000 0.0
1.5000000000 0.5000000000 0.0
1.5000000000 0.5714285714 0.0
1.5000000000 0.6428571429 0.0
1.5000000000 0.7142857143 0.0
1.5000000000 0.7857142857 0.0
1.5000000000 0.8571428571 0.0
1.5000000000 0.9285714286 0.0
1.5000000000 1.0000000000 0.0
[...]
POINT_DATA 1344
SCALARS E_mag double 1 
LOOKUP_TABLE default
0.000000000000000 0.091298676193519 0.181891813380577 0.271100981627635 0.358186948072279 0.442349676923215 0.522728329460271 0.598401264034398 0.091298676193518 0.129058084072546 0.203443884536468 0.285967717515456 0.369521830172104 0.451538954649497 0.530522065116024 0.605287779079322 0.181891813380575 0.203443884536468 0.257185900107938 0.326478962754163 0.401825978797063 0.478534166025369 0.553963556276880 0.626322204792097 0.271100981627634 0.285967717515456 0.326478962754164 0.383615796866546 0.449743506748640 0.519800572696840 0.590503722505256 0.659558251337381 0.358186948072280 0.369521830172104 0.401825978797063 0.449743506748640 0.507715140747501 0.571262776436886 0.637057895080357 0.702601093836305 0.442349676923218 0.451538954649498 0.478534166025369 0.519800572696839 0.571262776436885 0.629217687198664 0.690624817131545 0.753048241306341 0.522728329460278 0.530522065116026 0.553963556276879 0.590503722505254 0.637057895080353 0.690624817131542 0.748584248425982 0.808749569701107 0.598401264034407 0.605287779079327 0.626322204792096 0.659558251337376 0.702601093836298 0.753048241306332 0.808749569701099 0.867899321182422 0.598401264034407 0.605279575509281 0.626264869943114 0.659423209915934 0.702380951494039 0.752708899926851 0.808150177119100 0.866699017107329 0.668466781471024 0.674652745884225 0.694010594609701 0.724960888093557 0.765584560061433 0.813928615402705 0.868207289920847 0.926892686479113 0.731782281644736 0.737558672187864 0.755771212453781 0.785154247473462 0.824184941061137 0.871343957102650 0.925299177041114 0.985002792427016 0.787203847983868 0.792784479491920 0.810190930908155 0.838475332158623 0.876490159550210 0.923119610603254 0.977451710355393 1.038880013668622 0.833659572844576 0.839195880768901 0.856012624071892 0.883497321349738 0.920870117446370 0.967390840640431 1.022520671703576 1.086025977058201 0.870149557510845 0.875732046520177 0.892062208487098 0.918871365723814 0.955732700670037 1.002243091835258 1.058172253216230 1.123565073354800 0.895745912194494 0.901402763182112 0.917239674268942 0.943312618833095 0.979508744950980 1.025699354290561 1.081873100685534 1.148233252403670 0.909592756035170 0.915286814117306 0.930513879281151 0.955591977374604 0.990643296640181 1.035714164127773 1.090889689188283 1.156384734418727 0.598401264034398 0.668466781471007 0.731782281644732 0.787203847983876 0.833659572844585 0.870149557510846 0.895745912194485 0.909592756035172 0.605279575509276 0.674652745884223 0.737558672187866 0.792784479491921 0.839195880768901 0.875732046520175 0.901402763182110 0.915286814117308 0.626264869943114 0.694010594609707 0.755771212453783 0.810190930908153 0.856012624071888 0.892062208487095 0.917239674268942 0.930513879281152 0.659423209915941 0.724960888093563 0.785154247473462 0.838475332158619 0.883497321349733 0.918871365723812 0.943312618833096 0.955591977374603 0.702380951494047 0.765584560061436 0.824184941061135 0.876490159550205 0.920870117446366 0.955732700670036 0.979508744950981 0.990643296640176 0.752708899926859 0.813928615402706 0.871343957102646 0.923119610603248 0.967390840640427 1.002243091835257 1.025699354290562 1.035714164127767 0.808150177119115 0.868207289920853 0.925299177041110 0.977451710355384 1.022520671703567 1.058172253216227 1.081873100685537 1.090889689188280 0.866699017107380 0.926892686479134 0.985002792427010 1.038880013668601 1.086025977058180 1.123565073354795 1.148233252403682 1.156384734418731 0.909592756035170 0.915296745082954 0.930545634470811 0.955669279051047 0.990815958566558 1.036051624715837 1.091458494103639 1.157216276496298 0.911311476380511 0.916810530107918 0.931320538624371 0.955257448644523 0.988830144106834 1.032099318108959 1.085052365806983 1.147678075166651 0.900475958820897 0.905616408036495 0.919244688077635 0.941733710671294 0.973241698526111 1.013748715397112 1.063119132892846 1.121176133614752 0.877080588866707 0.881738676692375 0.894347358495752 0.915145214117821 0.944160929537741 0.981240628027555 1.026105659483762 1.078429795718835 0.841358129051331 0.845452318318844 0.856923590989093 0.875825608220006 0.902015312118210 0.935180537674108 0.974898112003193 1.020713840381102 0.793779718931177 0.797283120301830 0.807534778719266 0.824396502228977 0.847551809101173 0.876540537079482 0.910819896777954 0.949844723453378 0.735054875085663 0.738007899534402 0.747009673945528 0.761769857824549 0.781840979765261 0.806664802199955 0.835637023238143 0.868182841526621 0.666131491117223 0.668654979102802 0.676446468670390 0.689152881635450 0.706285830126040 0.727283593798259 0.751579090884534 0.778664572765984 0.666131491117223 0.668654365897586 0.676437496059590 0.689129192374129 0.706242797030313 0.727204002946297 0.751412318157328 0.778310166276846 0.588186966082493 0.590263171242372 0.596876255063457 0.607617564762761 0.621960172649131 0.639313073417520 0.659082493081167 0.680733282838071 0.502334716367185 0.504045821401949 0.509579682797690 0.518514064524712 0.530319594428680 0.544418917733915 0.560247967105062 0.577312046380831 0.409862208055185 0.411273967819020 0.415841866581685 0.423151810701972 0.432687246211090 0.443894195064652 0.456244352179896 0.469288683958830 0.312070652644152 0.313248180306701 0.317006805344746 0.322938793791241 0.330529428411728 0.339233280020079 0.348543756859183 0.358048017512666 0.210275007045516 0.211321049712389 0.214554358023834 0.219529457164592 0.225672390930527 0.232385771900992 0.239135598355120 0.245512468991833 0.105803973584475 0.107059095145078 0.110686404398407 0.115953687502163 0.121952456118530 0.127816806356575 0.132844309098886 0.136546546112750 0.000000000000000 0.014505297390934 0.028383193664925 0.040969671016519 0.051675259982917 0.059985039443980 0.065458636622225 0.067730227082827 0.778437060714383 0.805898791127395 0.834555571404774 0.862006419081811 0.886263500245750 0.905630433809656 0.918503202220906 0.923127312244659 0.680707174399982 0.702647319923548 0.724703813130279 0.745310252438259 0.763176929966690 0.777193504949040 0.786284805861809 0.789241800072118 0.577198982199432 0.594279710949639 0.610911146802436 0.626098052348273 0.639036556773034 0.649033401243762 0.655397145706601 0.657316327893209 0.469145033126453 0.481947657276188 0.494035671726764 0.504810033615363 0.513815029232513 0.520667499923068 0.524968305948570 0.526206983919319 0.357917644610104 0.366917907042936 0.375059861154090 0.382040053889991 0.387680217786743 0.391859357081125 0.394431705827161 0.395139780524642 0.245424060878121 0.250945602217356 0.255411218018178 0.258780809718045 0.261154310522629 0.262697153028371 0.263546906553230 0.263710654246184 0.136511108262942 0.138585567221852 0.139003433848993 0.138038840219307 0.136199783105816 0.134146652324261 0.132549820543741 0.131885465783762 0.067730227082827 0.066588093614618 0.061997437286425 0.054154281067463 0.043421016022143 0.030326401310065 0.015565564186023 0.000000000000000 0.909592756035172 0.911311476380502 0.900475958820900 0.877080588866718 0.841358129051340 0.793779718931172 0.735054875085647 0.666131491117228 0.915296745082953 0.916810530107916 0.905616408036495 0.881738676692376 0.845452318318845 0.797283120301828 0.738007899534399 0.668654979102801 0.930545634470808 0.931320538624371 0.919244688077633 0.894347358495747 0.856923590989089 0.807534778719266 0.747009673945531 0.676446468670389 0.955669279051042 0.955257448644524 0.941733710671292 0.915145214117815 0.875825608220002 0.824396502228977 0.761769857824553 0.689152881635448 0.990815958566556 0.988830144106836 0.973241698526109 0.944160929537736 0.902015312118207 0.847551809101173 0.781840979765264 0.706285830126038 1.036051624715841 1.032099318108962 1.013748715397110 0.981240628027551 0.935180537674106 0.876540537079483 0.806664802199958 0.727283593798255 1.091458494103654 1.085052365806988 1.063119132892843 1.026105659483756 0.974898112003191 0.910819896777957 0.835637023238148 0.751579090884524 1.157216276496329 1.147678075166661 1.121176133614746 1.078429795718823 1.020713840381099 0.949844723453388 0.868182841526634 0.778664572765958 0.666131491117228 0.588186966082493 0.502334716367187 0.409862208055189 0.312070652644154 0.210275007045511 0.105803973584466 0.000000000000000 0.668654365897584 0.590263171242370 0.504045821401948 0.411273967819021 0.313248180306701 0.211321049712387 0.107059095145076 0.014505297390945 0.676437496059587 0.596876255063455 0.509579682797688 0.415841866581683 0.317006805344745 0.214554358023835 0.110686404398409 0.028383193664936 0.689129192374126 0.607617564762761 0.518514064524710 0.423151810701969 0.322938793791239 0.219529457164593 0.115953687502167 0.040969671016522 0.706242797030313 0.621960172649131 0.530319594428679 0.432687246211087 0.330529428411727 0.225672390930529 0.121952456118533 0.051675259982911 0.727204002946297 0.639313073417520 0.544418917733914 0.443894195064650 0.339233280020079 0.232385771900994 0.127816806356576 0.059985039443967 0.751412318157325 0.659082493081166 0.560247967105062 0.456244352179897 0.348543756859183 0.239135598355120 0.132844309098884 0.065458636622213 0.778310166276835 0.680733282838067 0.577312046380833 0.469288683958834 0.358048017512668 0.245512468991831 0.136546546112745 0.067730227082824 0.778437060714424 0.680707174399987 0.577198982199433 0.469145033126457 0.357917644610107 0.245424060878117 0.136511108262932 0.067730227082824 0.805898791127384 0.702647319923544 0.594279710949638 0.481947657276189 0.366917907042936 0.250945602217354 0.138585567221850 0.066588093614632 0.834555571404757 0.724703813130275 0.610911146802436 0.494035671726763 0.375059861154089 0.255411218018178 0.139003433848996 0.061997437286436 0.862006419081810 0.745310252438261 0.626098052348273 0.504810033615361 0.382040053889990 0.258780809718047 0.138038840219311 0.054154281067465 0.886263500245767 0.763176929966697 0.639036556773035 0.513815029232511 0.387680217786743 0.261154310522632 0.136199783105819 0.043421016022135 0.905630433809678 0.777193504949047 0.649033401243762 0.520667499923068 0.391859357081125 0.262697153028372 0.134146652324261 0.030326401310053 0.918503202220907 0.786284805861808 0.655397145706602 0.524968305948571 0.394431705827162 0.263546906553229 0.132549820543738 0.015565564186014 0.923127312244597 0.789241800072098 0.657316327893209 0.526206983919323 0.395139780524643 0.263710654246181 0.131885465783756 0.000000000000000 0.865497048406752 0.896990747356418 0.926951812899937 0.956071165089633 0.984614062880855 1.012343915576349 1.038461681907398 1.061557036027666 0.896990747356453 0.926860602557105 0.956843396505693 0.986558955519061 1.015672582329777 1.043892485189495 1.070968526612759 1.096692426557671 0.926951812899983 0.956843396505712 0.987177952002852 1.017501992941600 1.047452982222173 1.076771871896528 1.105313651818113 1.133056977491374 0.956071165089678 0.986558955519086 1.017501992941609 1.048669495789909 1.079801222741559 1.110600078909226 1.140725993844488 1.169790851778617 0.984614062880891 1.015672582329798 1.047452982222183 1.079801222741562 1.112445300061315 1.144966298451908 1.176773732039262 1.207083986417234 1.012343915576370 1.043892485189505 1.076771871896533 1.110600078909230 1.144966298451910 1.179413559862189 1.213425309714354 1.246414689273674 1.038461681907388 1.070968526612750 1.105313651818110 1.140725993844493 1.176773732039270 1.213425309714359 1.251106374515213 1.290759939703850 1.061557036027595 1.096692426557632 1.133056977491367 1.169790851778632 1.207083986417256 1.246414689273689 1.290759939703852 1.344803228774051 1.061557036027595 1.098351215715998 1.132025839601834 1.167603905729318 1.207165509758501 1.249215983548826 1.288070145972838 1.313591814387851 1.087465259219754 1.120304031636573 1.157071718996826 1.196569456431881 1.237844602515545 1.280213850706323 1.323299029930361 1.367080681500281 1.106750111457996 1.141823348400928 1.180338336666345 1.221228006964025 1.264249531806809 1.310150108467423 1.360824846419316 1.419506885043149 1.123077937736712 1.160754389502547 1.200194020057934 1.242108584742842 1.287443071069327 1.337417942419649 1.393567780753877 1.457777957069626 1.137858598840265 1.175689916082126 1.215724443694679 1.259324441419204 1.307420807334955 1.360408711316684 1.418050583701847 1.479394690882825 1.150061619489673 1.186040361508460 1.226817192340038 1.272532552457757 1.322983104591433 1.377529688986321 1.435017189323350 1.493698345722798 1.156057478267758 1.192095256130617 1.234239182384273 1.280901781466568 1.331616143339126 1.387229117492431 1.450061506142691 1.524161138721330 1.149489117272996 1.195087083865441 1.239702004397780 1.283093654262386 1.329389675553198 1.388033319911602 1.474201295829934 1.609964735250210 1.061557036027666 1.087465259219782 1.106750111458030 1.123077937736753 1.137858598840291 1.150061619489672 1.156057478267754 1.149489117273084 1.098351215715980 1.120304031636585 1.141823348400949 1.160754389502564 1.175689916082134 1.186040361508462 1.192095256130623 1.195087083865468 1.132025839601800 1.157071718996828 1.180338336666353 1.200194020057938 1.215724443694680 1.226817192340039 1.234239182384273 1.239702004397763 1.167603905729300 1.196569456431879 1.221228006964026 1.242108584742842 1.259324441419204 1.272532552457755 1.280901781466561 1.283093654262357 1.207165509758504 1.237844602515546 1.264249531806809 1.287443071069326 1.307420807334953 1.322983104591428 1.331616143339115 1.329389675553181 1.249215983548847 1.280213850706333 1.310150108467424 1.337417942419646 1.360408711316678 1.377529688986316 1.387229117492426 1.388033319911596 1.288070145972884 1.323299029930384 1.360824846419314 1.393567780753862 1.418050583701837 1.435017189323355 1.450061506142695 1.474201295829883 1.313591814387964 1.367080681500322 1.419506885043126 1.457777957069586 1.479394690882818 1.493698345722835 1.524161138721336 1.609964735249971 1.281620531020285 1.401692972742336 1.406042037903301 1.417397088402072 1.488156078171148 1.591100618636534 1.597672887263918 1.297715243551616 1.401692972742387 1.412947402499346 1.462751393627330 1.519021996011576 1.561003537390087 1.581048970550423 1.588245458036381 1.617888088352852 1.406042037903275 1.462751393627333 1.531655677871077 1.590253730226326 1.630392353578827 1.661544900305774 1.714418307232406 1.844808715442877 1.417397088401992 1.519021996011569 1.590253730226333 1.654194815254324 1.725211658144670 1.805116645913789 1.879196064326446 1.915622392775617 1.488156078171095 1.561003537390076 1.630392353578827 1.725211658144672 1.848939456960194 1.976955551701734 2.045837090914062 1.941378070742033 1.591100618636556 1.581048970550402 1.661544900305755 1.805116645913788 1.976955551701746 2.136523013485389 2.247024842115889 2.287674780300167 1.597672887263894 1.588245458036309 1.714418307232373 1.879196064326474 2.045837090914118 2.247024842115927 2.614459571719417 3.490019842610882 1.297715243551241 1.617888088352638 1.844808715442885 1.915622392775773 1.941378070742210 2.287674780300224 3.490019842610847 6.563160353504049 1.150325644033175 1.198621303599005 1.237925296161810 1.279539952009100 1.330664112379063 1.393734107532424 1.466025164779145 1.541353568401388 1.155315996348161 1.192141986040230 1.232474613442649 1.277782877902956 1.328681990408823 1.384806283107657 1.444743104271239 1.506095104371017 1.149226741536256 1.184050423556815 1.223937989485304 1.268300860204538 1.316870595403896 1.369741651687374 1.427381426700429 1.490622754714549 1.136848533503386 1.172360421122239 1.210704202038665 1.252264984607340 1.297763110446950 1.348308469333715 1.405411416955894 1.470957799769385 1.121039351170977 1.155884130701547 1.191983371488398 1.230654640875994 1.273130803859800 1.320575714462395 1.374114429999953 1.434879030416446 1.102606896085978 1.134273955538545 1.167866873051296 1.204248623269029 1.243898037348937 1.286904848700936 1.333024971670821 1.381834742278773 1.080228696543195 1.108049853873446 1.139377300459829 1.173624797601174 1.210085953258814 1.247940936391234 1.286286730285878 1.324198619828998 1.050395856148230 1.078617862116913 1.108506292908652 1.139172362081941 1.170779613378752 1.204603999900747 1.242878375287971 1.288624489824068 1.050395856148230 1.079165846150017 1.108212288383439 1.138532565640363 1.170806336549692 1.205405645388484 1.242459534993491 1.282009665468968 1.020462948775537 1.045675439146889 1.072355326141792 1.100427750276018 1.129738672109548 1.160065382097270 1.191145102922017 1.222727142533149 0.986444194242412 1.009403908297657 1.033809174514920 1.059296466334291 1.085524674226228 1.112182805730890 1.138998651205291 1.165748747798470 0.949440960491135 0.970560619486617 0.992699648110211 1.015540870683536 1.038808393991044 1.062272279160993 1.085750489156810 1.109108200276876 0.910134959869236 0.929310129204631 0.949178147480409 0.969508231937886 0.990090913558864 1.010740556705641 1.031298358985228 1.051635982590017 0.868780521278303 0.885769223320361 0.903419607342337 0.921485321665089 0.939718433303563 0.957870851085554 0.975699854826343 0.992977960063220 0.825201215179057 0.840005005169249 0.855620959563454 0.871694420926950 0.887873665116678 0.903810655881803 0.919164456670359 0.933607474633363 0.778791409457365 0.792033978046697 0.806000126702248 0.820290653398553 0.834569586221605 0.848562276814991 0.862045736218754 0.874832031213714 1.211548276966159 1.724277010842154 1.788212607412672 1.789390615027008 1.982069090852827 2.472993427457829 3.235420006584015 4.640855191977418 1.513747546534815 1.627259041105426 1.703443220712181 1.824171926947867 2.023688958109595 2.296166637242156 2.618512547072507 3.073457153419530 1.558297170887327 1.570712756945681 1.656390539237373 1.791618710941250 1.949961997931475 2.104863926240936 2.236379795756295 2.346594137409815 1.490782314109176 1.529800767468203 1.615662477217628 1.719929774229922 1.823009500561693 1.914517047956239 1.989869456490933 2.043092775460631 1.413276557267137 1.487530538324972 1.562252213999922 1.631710935429441 1.694679045612249 1.754084511244766 1.815104172912761 1.881598125397540 1.371442076323645 1.435473036171895 1.491211961174992 1.542822193503284 1.591533177600590 1.636716018145028 1.677669105093264 1.716573671359308 1.350309692021737 1.373601261948666 1.413227494741423 1.461975947950260 1.510119765305656 1.546282968020765 1.558866356847075 1.538301323797902 1.271928315073903 1.310255516081411 1.355531548638789 1.391752994716173 1.415293844843462 1.433630541693226 1.454358739700389 1.472881419478494 1.265226203201725 1.314510195295059 1.354134995004031 1.386722957593802 1.413945449231967 1.436792712207404 1.456042883560317 1.472881419478494 1.220511988994145 1.253882758764467 1.284272235158086 1.311335782672262 1.334490200716103 1.352961537937066 1.365890207656428 1.372477593435151 1.166872744710687 1.192604160451412 1.217172343557131 1.239489633899195 1.258526785909817 1.273270167362981 1.282675260831185 1.285618814221153 1.109135198709798 1.131168354166904 1.151787781102798 1.170157584303812 1.185553054977561 1.197303004010882 1.204717113402692 1.207004107081902 1.050468320444711 1.069874380254101 1.087371731695982 1.102552249688850 1.115056456461283 1.124539055017690 1.130627974781625 1.132879948921778 0.992334600253506 1.008794377638981 1.023464468971118 1.036119246547786 1.046506807239469 1.054342507644901 1.059305903737978 1.061040268304141 0.934462285508842 0.947748558287688 0.959878199073108 0.970528856037000 0.979348920136535 0.985954261664724 0.989928599272858 0.990826445451329 0.874832031213714 0.886286404306574 0.896683266952126 0.905667420442069 0.912995761355392 0.918485627015329 0.921950331723229 0.923127312244659 1.150325644033290 1.155315996348151 1.149226741536225 1.136848533503374 1.121039351170982 1.102606896085983 1.080228696543184 1.050395856148218 1.198621303598982 1.192141986040215 1.184050423556804 1.172360421122231 1.155884130701542 1.134273955538544 1.108049853873448 1.078617862116916 1.237925296161765 1.232474613442637 1.223937989485299 1.21070420203